  64
   1   1
    11.545352000000005    -0.000000000000000    -0.000000000000000
    -0.000000000000000    11.545352000000005    -0.000000000000000
    -0.000000000000000    -0.000000000000000    11.545352000000005
   1   2
    -1.607209999999999    -0.000000000000000    -0.000000000000000
    -0.000000000000000    -0.002255000000000    -0.000000000000000
    -0.000000000000000    -0.000000000000000    -0.002255000000000
   1   3
    -0.002255000000000    -0.000000000000000    -0.000000000000000
    -0.000000000000000    -1.607209999999999    -0.000000000000000
    -0.000000000000000    -0.000000000000000    -0.002255000000000
   1   4
    -0.059090000000000    -0.000000000000000    -0.000000000000000
    -0.000000000000000    -0.059090000000000    -0.000000000000000
    -0.000000000000000    -0.000000000000000     0.118748000000000
   1   5
    -0.002255000000000    -0.000000000000000    -0.000000000000000
    -0.000000000000000    -0.002255000000000    -0.000000000000000
    -0.000000000000000    -0.000000000000000    -1.607209999999999
   1   6
    -0.059090000000000    -0.000000000000000    -0.000000000000000
    -0.000000000000000     0.118748000000000    -0.000000000000000
    -0.000000000000000    -0.000000000000000    -0.059090000000000
   1   7
     0.118748000000000    -0.000000000000000    -0.000000000000000
    -0.000000000000000    -0.059090000000000    -0.000000000000000
    -0.000000000000000    -0.000000000000000    -0.059090000000000
   1   8
    -0.118433000000000    -0.000000000000000    -0.000000000000000
    -0.000000000000000    -0.118433000000000    -0.000000000000000
    -0.000000000000000    -0.000000000000000    -0.118433000000000
   1   9
     0.472029000000000    -0.000000000000000    -0.000000000000000
    -0.000000000000000    -0.645271000000000    -1.598044000000000
    -0.000000000000000    -1.598044000000000    -0.645271000000000
   1  10
    -0.282920000000000    -0.000000000000000    -0.000000000000000
    -0.000000000000000     0.004964000000000     0.034256000000000
    -0.000000000000000     0.034256000000000     0.004964000000000
   1  11
     0.472029000000000    -0.000000000000000    -0.000000000000000
    -0.000000000000000    -0.645271000000000     1.598044000000000
    -0.000000000000000     1.598044000000000    -0.645271000000000
   1  12
    -0.282920000000000    -0.000000000000000    -0.000000000000000
    -0.000000000000000     0.004964000000000    -0.034256000000000
    -0.000000000000000    -0.034256000000000     0.004964000000000
   1  13
     0.472029000000000    -0.000000000000000    -0.000000000000000
    -0.000000000000000    -0.645271000000000     1.598044000000000
    -0.000000000000000     1.598044000000000    -0.645271000000000
   1  14
    -0.282920000000000    -0.000000000000000    -0.000000000000000
    -0.000000000000000     0.004964000000000    -0.034256000000000
    -0.000000000000000    -0.034256000000000     0.004964000000000
   1  15
     0.472029000000000    -0.000000000000000    -0.000000000000000
    -0.000000000000000    -0.645271000000000    -1.598044000000000
    -0.000000000000000    -1.598044000000000    -0.645271000000000
   1  16
    -0.282920000000000    -0.000000000000000    -0.000000000000000
    -0.000000000000000     0.004964000000000     0.034256000000000
    -0.000000000000000     0.034256000000000     0.004964000000000
   1  17
    -0.645271000000000    -0.000000000000000    -1.598044000000000
    -0.000000000000000     0.472029000000000    -0.000000000000000
    -1.598044000000000    -0.000000000000000    -0.645271000000000
   1  18
    -0.645271000000000    -0.000000000000000     1.598044000000000
    -0.000000000000000     0.472029000000000    -0.000000000000000
     1.598044000000000    -0.000000000000000    -0.645271000000000
   1  19
     0.004964000000000    -0.000000000000000     0.034256000000000
    -0.000000000000000    -0.282920000000000    -0.000000000000000
     0.034256000000000    -0.000000000000000     0.004964000000000
   1  20
     0.004964000000000    -0.000000000000000    -0.034256000000000
    -0.000000000000000    -0.282920000000000    -0.000000000000000
    -0.034256000000000    -0.000000000000000     0.004964000000000
   1  21
    -0.645271000000000    -0.000000000000000     1.598044000000000
    -0.000000000000000     0.472029000000000    -0.000000000000000
     1.598044000000000    -0.000000000000000    -0.645271000000000
   1  22
    -0.645271000000000    -0.000000000000000    -1.598044000000000
    -0.000000000000000     0.472029000000000    -0.000000000000000
    -1.598044000000000    -0.000000000000000    -0.645271000000000
   1  23
     0.004964000000000    -0.000000000000000    -0.034256000000000
    -0.000000000000000    -0.282920000000000    -0.000000000000000
    -0.034256000000000    -0.000000000000000     0.004964000000000
   1  24
     0.004964000000000    -0.000000000000000     0.034256000000000
    -0.000000000000000    -0.282920000000000    -0.000000000000000
     0.034256000000000    -0.000000000000000     0.004964000000000
   1  25
    -0.645271000000000    -1.598044000000000    -0.000000000000000
    -1.598044000000000    -0.645271000000000    -0.000000000000000
    -0.000000000000000    -0.000000000000000     0.472029000000000
   1  26
    -0.645271000000000     1.598044000000000    -0.000000000000000
     1.598044000000000    -0.645271000000000    -0.000000000000000
    -0.000000000000000    -0.000000000000000     0.472029000000000
   1  27
    -0.645271000000000     1.598044000000000    -0.000000000000000
     1.598044000000000    -0.645271000000000    -0.000000000000000
    -0.000000000000000    -0.000000000000000     0.472029000000000
   1  28
    -0.645271000000000    -1.598044000000000    -0.000000000000000
    -1.598044000000000    -0.645271000000000    -0.000000000000000
    -0.000000000000000    -0.000000000000000     0.472029000000000
   1  29
     0.004964000000000     0.034256000000000    -0.000000000000000
     0.034256000000000     0.004964000000000    -0.000000000000000
    -0.000000000000000    -0.000000000000000    -0.282920000000000
   1  30
     0.004964000000000    -0.034256000000000    -0.000000000000000
    -0.034256000000000     0.004964000000000    -0.000000000000000
    -0.000000000000000    -0.000000000000000    -0.282920000000000
   1  31
     0.004964000000000    -0.034256000000000    -0.000000000000000
    -0.034256000000000     0.004964000000000    -0.000000000000000
    -0.000000000000000    -0.000000000000000    -0.282920000000000
   1  32
     0.004964000000000     0.034256000000000    -0.000000000000000
     0.034256000000000     0.004964000000000    -0.000000000000000
    -0.000000000000000    -0.000000000000000    -0.282920000000000
   1  33
     0.035366500000000     0.273398500000000     0.273398500000000
     0.273398500000000     0.035366500000000     0.273398500000000
     0.273398500000000     0.273398500000000     0.035366500000000
   1  34
     0.035366500000000    -0.273398500000000    -0.273398500000000
    -0.273398500000000     0.035366500000000     0.273398500000000
    -0.273398500000000     0.273398500000000     0.035366500000000
   1  35
     0.035366500000000    -0.273398500000000     0.273398500000000
    -0.273398500000000     0.035366500000000    -0.273398500000000
     0.273398500000000    -0.273398500000000     0.035366500000000
   1  36
     0.035366500000000     0.273398500000000    -0.273398500000000
     0.273398500000000     0.035366500000000    -0.273398500000000
    -0.273398500000000    -0.273398500000000     0.035366500000000
   1  37
     0.035366500000000     0.273398500000000    -0.273398500000000
     0.273398500000000     0.035366500000000    -0.273398500000000
    -0.273398500000000    -0.273398500000000     0.035366500000000
   1  38
     0.035366500000000    -0.273398500000000     0.273398500000000
    -0.273398500000000     0.035366500000000    -0.273398500000000
     0.273398500000000    -0.273398500000000     0.035366500000000
   1  39
     0.035366500000000    -0.273398500000000    -0.273398500000000
    -0.273398500000000     0.035366500000000     0.273398500000000
    -0.273398500000000     0.273398500000000     0.035366500000000
   1  40
     0.035366500000000     0.273398500000000     0.273398500000000
     0.273398500000000     0.035366500000000     0.273398500000000
     0.273398500000000     0.273398500000000     0.035366500000000
   1  41
    -1.287471000000000    -0.000000000000000    -0.000000000000000
    -0.000000000000000    -1.368230000000000    -0.000000000000000
    -0.000000000000000    -0.000000000000000    -1.368230000000000
   1  42
    -1.287471000000000    -0.000000000000000    -0.000000000000000
    -0.000000000000000    -1.368230000000000    -0.000000000000000
    -0.000000000000000    -0.000000000000000    -1.368230000000000
   1  43
    -0.044775500000000    -0.000000000000000    -0.000000000000000
    -0.000000000000000     0.606490000000000    -0.000000000000000
    -0.000000000000000    -0.000000000000000    -0.133582000000000
   1  44
    -0.044775500000000    -0.000000000000000    -0.000000000000000
    -0.000000000000000     0.606490000000000    -0.000000000000000
    -0.000000000000000    -0.000000000000000    -0.133582000000000
   1  45
    -0.044775500000000    -0.000000000000000    -0.000000000000000
    -0.000000000000000    -0.133582000000000    -0.000000000000000
    -0.000000000000000    -0.000000000000000     0.606490000000000
   1  46
    -0.044775500000000    -0.000000000000000    -0.000000000000000
    -0.000000000000000    -0.133582000000000    -0.000000000000000
    -0.000000000000000    -0.000000000000000     0.606490000000000
   1  47
    -0.000728500000000    -0.000000000000000    -0.000000000000000
    -0.000000000000000     0.151028000000000    -0.000000000000000
    -0.000000000000000    -0.000000000000000     0.151028000000000
   1  48
    -0.000728500000000    -0.000000000000000    -0.000000000000000
    -0.000000000000000     0.151028000000000    -0.000000000000000
    -0.000000000000000    -0.000000000000000     0.151028000000000
   1  49
    -1.368230000000000    -0.000000000000000    -0.000000000000000
    -0.000000000000000    -1.287471000000000    -0.000000000000000
    -0.000000000000000    -0.000000000000000    -1.368230000000000
   1  50
     0.606490000000000    -0.000000000000000    -0.000000000000000
    -0.000000000000000    -0.044775500000000    -0.000000000000000
    -0.000000000000000    -0.000000000000000    -0.133582000000000
   1  51
    -1.368230000000000    -0.000000000000000    -0.000000000000000
    -0.000000000000000    -1.287471000000000    -0.000000000000000
    -0.000000000000000    -0.000000000000000    -1.368230000000000
   1  52
     0.606490000000000    -0.000000000000000    -0.000000000000000
    -0.000000000000000    -0.044775500000000    -0.000000000000000
    -0.000000000000000    -0.000000000000000    -0.133582000000000
   1  53
    -0.133582000000000    -0.000000000000000    -0.000000000000000
    -0.000000000000000    -0.044775500000000    -0.000000000000000
    -0.000000000000000    -0.000000000000000     0.606490000000000
   1  54
     0.151028000000000    -0.000000000000000    -0.000000000000000
    -0.000000000000000    -0.000728500000000    -0.000000000000000
    -0.000000000000000    -0.000000000000000     0.151028000000000
   1  55
    -0.133582000000000    -0.000000000000000    -0.000000000000000
    -0.000000000000000    -0.044775500000000    -0.000000000000000
    -0.000000000000000    -0.000000000000000     0.606490000000000
   1  56
     0.151028000000000    -0.000000000000000    -0.000000000000000
    -0.000000000000000    -0.000728500000000    -0.000000000000000
    -0.000000000000000    -0.000000000000000     0.151028000000000
   1  57
    -1.368230000000000    -0.000000000000000    -0.000000000000000
    -0.000000000000000    -1.368230000000000    -0.000000000000000
    -0.000000000000000    -0.000000000000000    -1.287471000000000
   1  58
     0.606490000000000    -0.000000000000000    -0.000000000000000
    -0.000000000000000    -0.133582000000000    -0.000000000000000
    -0.000000000000000    -0.000000000000000    -0.044775500000000
   1  59
    -0.133582000000000    -0.000000000000000    -0.000000000000000
    -0.000000000000000     0.606490000000000    -0.000000000000000
    -0.000000000000000    -0.000000000000000    -0.044775500000000
   1  60
     0.151028000000000    -0.000000000000000    -0.000000000000000
    -0.000000000000000     0.151028000000000    -0.000000000000000
    -0.000000000000000    -0.000000000000000    -0.000728500000000
   1  61
    -1.368230000000000    -0.000000000000000    -0.000000000000000
    -0.000000000000000    -1.368230000000000    -0.000000000000000
    -0.000000000000000    -0.000000000000000    -1.287471000000000
   1  62
     0.606490000000000    -0.000000000000000    -0.000000000000000
    -0.000000000000000    -0.133582000000000    -0.000000000000000
    -0.000000000000000    -0.000000000000000    -0.044775500000000
   1  63
    -0.133582000000000    -0.000000000000000    -0.000000000000000
    -0.000000000000000     0.606490000000000    -0.000000000000000
    -0.000000000000000    -0.000000000000000    -0.044775500000000
   1  64
     0.151028000000000    -0.000000000000000    -0.000000000000000
    -0.000000000000000     0.151028000000000    -0.000000000000000
    -0.000000000000000    -0.000000000000000    -0.000728500000000
   2   1
    -1.607209999999999     0.000000000000000     0.000000000000000
     0.000000000000000    -0.002255000000000     0.000000000000000
     0.000000000000000     0.000000000000000    -0.002255000000000
   2   2
    11.545352000000005     0.000000000000000     0.000000000000000
     0.000000000000000    11.545352000000005     0.000000000000000
     0.000000000000000     0.000000000000000    11.545352000000005
   2   3
    -0.059090000000000     0.000000000000000     0.000000000000000
     0.000000000000000    -0.059090000000000     0.000000000000000
     0.000000000000000     0.000000000000000     0.118748000000000
   2   4
    -0.002255000000000     0.000000000000000     0.000000000000000
     0.000000000000000    -1.607209999999999     0.000000000000000
     0.000000000000000     0.000000000000000    -0.002255000000000
   2   5
    -0.059090000000000     0.000000000000000     0.000000000000000
     0.000000000000000     0.118748000000000     0.000000000000000
     0.000000000000000     0.000000000000000    -0.059090000000000
   2   6
    -0.002255000000000     0.000000000000000     0.000000000000000
     0.000000000000000    -0.002255000000000     0.000000000000000
     0.000000000000000     0.000000000000000    -1.607209999999999
   2   7
    -0.118433000000000     0.000000000000000     0.000000000000000
     0.000000000000000    -0.118433000000000     0.000000000000000
     0.000000000000000     0.000000000000000    -0.118433000000000
   2   8
     0.118748000000000     0.000000000000000     0.000000000000000
     0.000000000000000    -0.059090000000000     0.000000000000000
     0.000000000000000     0.000000000000000    -0.059090000000000
   2   9
    -0.282920000000000     0.000000000000000     0.000000000000000
     0.000000000000000     0.004964000000000     0.034256000000000
     0.000000000000000     0.034256000000000     0.004964000000000
   2  10
     0.472029000000000     0.000000000000000     0.000000000000000
     0.000000000000000    -0.645271000000000    -1.598044000000000
     0.000000000000000    -1.598044000000000    -0.645271000000000
   2  11
    -0.282920000000000     0.000000000000000     0.000000000000000
     0.000000000000000     0.004964000000000    -0.034256000000000
     0.000000000000000    -0.034256000000000     0.004964000000000
   2  12
     0.472029000000000     0.000000000000000     0.000000000000000
     0.000000000000000    -0.645271000000000     1.598044000000000
     0.000000000000000     1.598044000000000    -0.645271000000000
   2  13
    -0.282920000000000     0.000000000000000     0.000000000000000
     0.000000000000000     0.004964000000000    -0.034256000000000
     0.000000000000000    -0.034256000000000     0.004964000000000
   2  14
     0.472029000000000     0.000000000000000     0.000000000000000
     0.000000000000000    -0.645271000000000     1.598044000000000
     0.000000000000000     1.598044000000000    -0.645271000000000
   2  15
    -0.282920000000000     0.000000000000000     0.000000000000000
     0.000000000000000     0.004964000000000     0.034256000000000
     0.000000000000000     0.034256000000000     0.004964000000000
   2  16
     0.472029000000000     0.000000000000000     0.000000000000000
     0.000000000000000    -0.645271000000000    -1.598044000000000
     0.000000000000000    -1.598044000000000    -0.645271000000000
   2  17
    -0.645271000000000     0.000000000000000     1.598044000000000
     0.000000000000000     0.472029000000000     0.000000000000000
     1.598044000000000     0.000000000000000    -0.645271000000000
   2  18
    -0.645271000000000     0.000000000000000    -1.598044000000000
     0.000000000000000     0.472029000000000     0.000000000000000
    -1.598044000000000     0.000000000000000    -0.645271000000000
   2  19
     0.004964000000000     0.000000000000000    -0.034256000000000
     0.000000000000000    -0.282920000000000     0.000000000000000
    -0.034256000000000     0.000000000000000     0.004964000000000
   2  20
     0.004964000000000     0.000000000000000     0.034256000000000
     0.000000000000000    -0.282920000000000     0.000000000000000
     0.034256000000000     0.000000000000000     0.004964000000000
   2  21
    -0.645271000000000     0.000000000000000    -1.598044000000000
     0.000000000000000     0.472029000000000     0.000000000000000
    -1.598044000000000     0.000000000000000    -0.645271000000000
   2  22
    -0.645271000000000     0.000000000000000     1.598044000000000
     0.000000000000000     0.472029000000000     0.000000000000000
     1.598044000000000     0.000000000000000    -0.645271000000000
   2  23
     0.004964000000000     0.000000000000000     0.034256000000000
     0.000000000000000    -0.282920000000000     0.000000000000000
     0.034256000000000     0.000000000000000     0.004964000000000
   2  24
     0.004964000000000     0.000000000000000    -0.034256000000000
     0.000000000000000    -0.282920000000000     0.000000000000000
    -0.034256000000000     0.000000000000000     0.004964000000000
   2  25
    -0.645271000000000     1.598044000000000     0.000000000000000
     1.598044000000000    -0.645271000000000     0.000000000000000
     0.000000000000000     0.000000000000000     0.472029000000000
   2  26
    -0.645271000000000    -1.598044000000000     0.000000000000000
    -1.598044000000000    -0.645271000000000     0.000000000000000
     0.000000000000000     0.000000000000000     0.472029000000000
   2  27
    -0.645271000000000    -1.598044000000000     0.000000000000000
    -1.598044000000000    -0.645271000000000     0.000000000000000
     0.000000000000000     0.000000000000000     0.472029000000000
   2  28
    -0.645271000000000     1.598044000000000     0.000000000000000
     1.598044000000000    -0.645271000000000     0.000000000000000
     0.000000000000000     0.000000000000000     0.472029000000000
   2  29
     0.004964000000000    -0.034256000000000     0.000000000000000
    -0.034256000000000     0.004964000000000     0.000000000000000
     0.000000000000000     0.000000000000000    -0.282920000000000
   2  30
     0.004964000000000     0.034256000000000     0.000000000000000
     0.034256000000000     0.004964000000000     0.000000000000000
     0.000000000000000     0.000000000000000    -0.282920000000000
   2  31
     0.004964000000000     0.034256000000000     0.000000000000000
     0.034256000000000     0.004964000000000     0.000000000000000
     0.000000000000000     0.000000000000000    -0.282920000000000
   2  32
     0.004964000000000    -0.034256000000000     0.000000000000000
    -0.034256000000000     0.004964000000000     0.000000000000000
     0.000000000000000     0.000000000000000    -0.282920000000000
   2  33
     0.035366500000000    -0.273398500000000    -0.273398500000000
    -0.273398500000000     0.035366500000000     0.273398500000000
    -0.273398500000000     0.273398500000000     0.035366500000000
   2  34
     0.035366500000000     0.273398500000000     0.273398500000000
     0.273398500000000     0.035366500000000     0.273398500000000
     0.273398500000000     0.273398500000000     0.035366500000000
   2  35
     0.035366500000000     0.273398500000000    -0.273398500000000
     0.273398500000000     0.035366500000000    -0.273398500000000
    -0.273398500000000    -0.273398500000000     0.035366500000000
   2  36
     0.035366500000000    -0.273398500000000     0.273398500000000
    -0.273398500000000     0.035366500000000    -0.273398500000000
     0.273398500000000    -0.273398500000000     0.035366500000000
   2  37
     0.035366500000000    -0.273398500000000     0.273398500000000
    -0.273398500000000     0.035366500000000    -0.273398500000000
     0.273398500000000    -0.273398500000000     0.035366500000000
   2  38
     0.035366500000000     0.273398500000000    -0.273398500000000
     0.273398500000000     0.035366500000000    -0.273398500000000
    -0.273398500000000    -0.273398500000000     0.035366500000000
   2  39
     0.035366500000000     0.273398500000000     0.273398500000000
     0.273398500000000     0.035366500000000     0.273398500000000
     0.273398500000000     0.273398500000000     0.035366500000000
   2  40
     0.035366500000000    -0.273398500000000    -0.273398500000000
    -0.273398500000000     0.035366500000000     0.273398500000000
    -0.273398500000000     0.273398500000000     0.035366500000000
   2  41
    -1.287471000000000     0.000000000000000     0.000000000000000
     0.000000000000000    -1.368230000000000     0.000000000000000
     0.000000000000000     0.000000000000000    -1.368230000000000
   2  42
    -1.287471000000000     0.000000000000000     0.000000000000000
     0.000000000000000    -1.368230000000000     0.000000000000000
     0.000000000000000     0.000000000000000    -1.368230000000000
   2  43
    -0.044775500000000     0.000000000000000     0.000000000000000
     0.000000000000000     0.606490000000000     0.000000000000000
     0.000000000000000     0.000000000000000    -0.133582000000000
   2  44
    -0.044775500000000     0.000000000000000     0.000000000000000
     0.000000000000000     0.606490000000000     0.000000000000000
     0.000000000000000     0.000000000000000    -0.133582000000000
   2  45
    -0.044775500000000     0.000000000000000     0.000000000000000
     0.000000000000000    -0.133582000000000     0.000000000000000
     0.000000000000000     0.000000000000000     0.606490000000000
   2  46
    -0.044775500000000     0.000000000000000     0.000000000000000
     0.000000000000000    -0.133582000000000     0.000000000000000
     0.000000000000000     0.000000000000000     0.606490000000000
   2  47
    -0.000728500000000     0.000000000000000     0.000000000000000
     0.000000000000000     0.151028000000000     0.000000000000000
     0.000000000000000     0.000000000000000     0.151028000000000
   2  48
    -0.000728500000000     0.000000000000000     0.000000000000000
     0.000000000000000     0.151028000000000     0.000000000000000
     0.000000000000000     0.000000000000000     0.151028000000000
   2  49
     0.606490000000000     0.000000000000000     0.000000000000000
     0.000000000000000    -0.044775500000000     0.000000000000000
     0.000000000000000     0.000000000000000    -0.133582000000000
   2  50
    -1.368230000000000     0.000000000000000     0.000000000000000
     0.000000000000000    -1.287471000000000     0.000000000000000
     0.000000000000000     0.000000000000000    -1.368230000000000
   2  51
     0.606490000000000     0.000000000000000     0.000000000000000
     0.000000000000000    -0.044775500000000     0.000000000000000
     0.000000000000000     0.000000000000000    -0.133582000000000
   2  52
    -1.368230000000000     0.000000000000000     0.000000000000000
     0.000000000000000    -1.287471000000000     0.000000000000000
     0.000000000000000     0.000000000000000    -1.368230000000000
   2  53
     0.151028000000000     0.000000000000000     0.000000000000000
     0.000000000000000    -0.000728500000000     0.000000000000000
     0.000000000000000     0.000000000000000     0.151028000000000
   2  54
    -0.133582000000000     0.000000000000000     0.000000000000000
     0.000000000000000    -0.044775500000000     0.000000000000000
     0.000000000000000     0.000000000000000     0.606490000000000
   2  55
     0.151028000000000     0.000000000000000     0.000000000000000
     0.000000000000000    -0.000728500000000     0.000000000000000
     0.000000000000000     0.000000000000000     0.151028000000000
   2  56
    -0.133582000000000     0.000000000000000     0.000000000000000
     0.000000000000000    -0.044775500000000     0.000000000000000
     0.000000000000000     0.000000000000000     0.606490000000000
   2  57
     0.606490000000000     0.000000000000000     0.000000000000000
     0.000000000000000    -0.133582000000000     0.000000000000000
     0.000000000000000     0.000000000000000    -0.044775500000000
   2  58
    -1.368230000000000     0.000000000000000     0.000000000000000
     0.000000000000000    -1.368230000000000     0.000000000000000
     0.000000000000000     0.000000000000000    -1.287471000000000
   2  59
     0.151028000000000     0.000000000000000     0.000000000000000
     0.000000000000000     0.151028000000000     0.000000000000000
     0.000000000000000     0.000000000000000    -0.000728500000000
   2  60
    -0.133582000000000     0.000000000000000     0.000000000000000
     0.000000000000000     0.606490000000000     0.000000000000000
     0.000000000000000     0.000000000000000    -0.044775500000000
   2  61
     0.606490000000000     0.000000000000000     0.000000000000000
     0.000000000000000    -0.133582000000000     0.000000000000000
     0.000000000000000     0.000000000000000    -0.044775500000000
   2  62
    -1.368230000000000     0.000000000000000     0.000000000000000
     0.000000000000000    -1.368230000000000     0.000000000000000
     0.000000000000000     0.000000000000000    -1.287471000000000
   2  63
     0.151028000000000     0.000000000000000     0.000000000000000
     0.000000000000000     0.151028000000000     0.000000000000000
     0.000000000000000     0.000000000000000    -0.000728500000000
   2  64
    -0.133582000000000     0.000000000000000     0.000000000000000
     0.000000000000000     0.606490000000000     0.000000000000000
     0.000000000000000     0.000000000000000    -0.044775500000000
   3   1
    -0.002255000000000     0.000000000000000     0.000000000000000
     0.000000000000000    -1.607209999999999     0.000000000000000
     0.000000000000000     0.000000000000000    -0.002255000000000
   3   2
    -0.059090000000000     0.000000000000000     0.000000000000000
     0.000000000000000    -0.059090000000000     0.000000000000000
     0.000000000000000     0.000000000000000     0.118748000000000
   3   3
    11.545352000000005     0.000000000000000     0.000000000000000
     0.000000000000000    11.545352000000005     0.000000000000000
     0.000000000000000     0.000000000000000    11.545352000000005
   3   4
    -1.607209999999999     0.000000000000000     0.000000000000000
     0.000000000000000    -0.002255000000000     0.000000000000000
     0.000000000000000     0.000000000000000    -0.002255000000000
   3   5
     0.118748000000000     0.000000000000000     0.000000000000000
     0.000000000000000    -0.059090000000000     0.000000000000000
     0.000000000000000     0.000000000000000    -0.059090000000000
   3   6
    -0.118433000000000     0.000000000000000     0.000000000000000
     0.000000000000000    -0.118433000000000     0.000000000000000
     0.000000000000000     0.000000000000000    -0.118433000000000
   3   7
    -0.002255000000000     0.000000000000000     0.000000000000000
     0.000000000000000    -0.002255000000000     0.000000000000000
     0.000000000000000     0.000000000000000    -1.607209999999999
   3   8
    -0.059090000000000     0.000000000000000     0.000000000000000
     0.000000000000000     0.118748000000000     0.000000000000000
     0.000000000000000     0.000000000000000    -0.059090000000000
   3   9
     0.472029000000000     0.000000000000000     0.000000000000000
     0.000000000000000    -0.645271000000000     1.598044000000000
     0.000000000000000     1.598044000000000    -0.645271000000000
   3  10
    -0.282920000000000     0.000000000000000     0.000000000000000
     0.000000000000000     0.004964000000000    -0.034256000000000
     0.000000000000000    -0.034256000000000     0.004964000000000
   3  11
     0.472029000000000     0.000000000000000     0.000000000000000
     0.000000000000000    -0.645271000000000    -1.598044000000000
     0.000000000000000    -1.598044000000000    -0.645271000000000
   3  12
    -0.282920000000000     0.000000000000000     0.000000000000000
     0.000000000000000     0.004964000000000     0.034256000000000
     0.000000000000000     0.034256000000000     0.004964000000000
   3  13
     0.472029000000000     0.000000000000000     0.000000000000000
     0.000000000000000    -0.645271000000000    -1.598044000000000
     0.000000000000000    -1.598044000000000    -0.645271000000000
   3  14
    -0.282920000000000     0.000000000000000     0.000000000000000
     0.000000000000000     0.004964000000000     0.034256000000000
     0.000000000000000     0.034256000000000     0.004964000000000
   3  15
     0.472029000000000     0.000000000000000     0.000000000000000
     0.000000000000000    -0.645271000000000     1.598044000000000