Generated using dynaphopy

8 atoms

1 atom types


        0.0000000000         5.4500000000 xlo xhi
        0.0000000000         5.4500000000 ylo yhi
        0.0000000000         5.4500000000 zlo zhi
        0.0000000000         0.0000000000         0.0000000000 xy xz yz

Masses

1        28.0855000000 

Atoms

1 1         4.7687500000         4.7687500000         4.7687500000
2 1         4.7687500000         2.0437500000         2.0437500000
3 1         2.0437500000         4.7687500000         2.0437500000
4 1         2.0437500000         2.0437500000         4.7687500000
5 1         0.6812500000         0.6812500000         0.6812500000
6 1         0.6812500000         3.4062500000         3.4062500000
7 1         3.4062500000         0.6812500000         3.4062500000
8 1         3.4062500000         3.4062500000         0.6812500000
