  64   64
1 1
    14.888545800282047    -0.000822077779387    -0.000822077779387
    -0.000822077779387    14.888545800282051    -0.000822077779385
    -0.000822077779387    -0.000822077779385    14.888545800282046
1 2
     0.003399921466617     0.000822077779387     0.000822077779387
     0.000822077779387    -0.003093944366381    -0.000822077779384
     0.000822077779387    -0.000822077779384    -0.003093944366383
1 3
    -0.003093944366382     0.000822077779386    -0.000822077779387
     0.000822077779387     0.003399921466616     0.000822077779386
    -0.000822077779387     0.000822077779386    -0.003093944366387
1 4
    -0.000974501121615    -0.000822077779387     0.000822077779387
    -0.000822077779387    -0.000974501121615     0.000822077779387
     0.000822077779387     0.000822077779387     0.000738625255798
1 5
    -0.003093944366383    -0.000822077779387     0.000822077779387
    -0.000822077779387    -0.003093944366384     0.000822077779387
     0.000822077779387     0.000822077779387     0.003399921466619
1 6
    -0.000974501121613     0.000822077779387    -0.000822077779387
     0.000822077779387     0.000738625255794     0.000822077779386
    -0.000822077779387     0.000822077779386    -0.000974501121617
1 7
     0.000738625255795     0.000822077779386     0.000822077779387
     0.000822077779386    -0.000974501121615    -0.000822077779386
     0.000822077779386    -0.000822077779386    -0.000974501121615
1 8
    -0.016711995414139    -0.000822077779387    -0.000822077779387
    -0.000822077779387    -0.016711995414141    -0.000822077779384
    -0.000822077779387    -0.000822077779384    -0.016711995414142
1 9
     0.063775907026125    -0.167241519916234    -0.167241519916234
     0.167241519916235    -0.146936485963434    -0.202568998603233
     0.167241519916235    -0.202568998603230    -0.146936485963436
1 10
    -0.001410675150827     0.001915756195776     0.001915756195775
    -0.001915756195776    -0.003402688474972    -0.000200898729277
    -0.001915756195776    -0.000200898729278    -0.003402688474971
1 11
     0.062346348268463    -0.167241519916235     0.167241519916234
     0.167241519916235    -0.146941126383315     0.202566314285592
    -0.167241519916235     0.202571682920871    -0.146941126383316
1 12
    -0.002840233908491     0.001915756195776    -0.001915756195776
    -0.001915756195776    -0.003407328894856     0.000203583046918
     0.001915756195776     0.000198214411637    -0.003407328894855
1 13
     0.062346348268464     0.167241519916235    -0.167241519916235
    -0.167241519916235    -0.146941126383315     0.202571682920871
     0.167241519916235     0.202566314285592    -0.146941126383315
1 14
    -0.002840233908491    -0.001915756195776     0.001915756195776
     0.001915756195776    -0.003407328894855     0.000198214411638
    -0.001915756195776     0.000203583046918    -0.003407328894854
1 15
     0.063775907026130     0.167241519916235     0.167241519916235
    -0.167241519916234    -0.146936485963429    -0.202568998603231
    -0.167241519916234    -0.202568998603233    -0.146936485963431
1 16
    -0.001410675150827    -0.001915756195776    -0.001915756195776
     0.001915756195776    -0.003402688474971    -0.000200898729278
     0.001915756195776    -0.000200898729277    -0.003402688474970
1 17
    -0.146936485963435     0.167241519916235    -0.202568998603232
    -0.167241519916235     0.063775907026125    -0.167241519916234
    -0.202568998603231     0.167241519916236    -0.146936485963436
1 18
    -0.146941126383315     0.167241519916235     0.202566314285591
    -0.167241519916235     0.062346348268463     0.167241519916235
     0.202571682920872    -0.167241519916235    -0.146941126383316
1 19
    -0.003402688474972    -0.001915756195776    -0.000200898729277
     0.001915756195776    -0.001410675150825     0.001915756195776
    -0.000200898729278    -0.001915756195777    -0.003402688474969
1 20
    -0.003407328894855    -0.001915756195775     0.000203583046917
     0.001915756195776    -0.002840233908494    -0.001915756195776
     0.000198214411637     0.001915756195777    -0.003407328894856
1 21
    -0.146941126383315    -0.167241519916235     0.202571682920872
     0.167241519916235     0.062346348268463    -0.167241519916235
     0.202566314285591     0.167241519916235    -0.146941126383315
1 22
    -0.146936485963430    -0.167241519916235    -0.202568998603231
     0.167241519916235     0.063775907026130     0.167241519916236
    -0.202568998603232    -0.167241519916234    -0.146936485963431
1 23
    -0.003407328894855     0.001915756195776     0.000198214411637
    -0.001915756195775    -0.002840233908494     0.001915756195777
     0.000203583046917    -0.001915756195776    -0.003407328894856
1 24
    -0.003402688474972     0.001915756195776    -0.000200898729277
    -0.001915756195776    -0.001410675150825    -0.001915756195777
    -0.000200898729277     0.001915756195776    -0.003402688474969
1 25
    -0.146936485963436    -0.202568998603232     0.167241519916234
    -0.202568998603232    -0.146936485963435     0.167241519916235
    -0.167241519916234    -0.167241519916236     0.063775907026126
1 26
    -0.146941126383313     0.202566314285592     0.167241519916235
     0.202571682920872    -0.146941126383314    -0.167241519916235
    -0.167241519916235     0.167241519916235     0.062346348268464
1 27
    -0.146941126383313     0.202571682920872    -0.167241519916235
     0.202566314285591    -0.146941126383314     0.167241519916236
     0.167241519916235    -0.167241519916235     0.062346348268464
1 28
    -0.146936485963431    -0.202568998603232    -0.167241519916234
    -0.202568998603232    -0.146936485963430    -0.167241519916236
     0.167241519916235     0.167241519916235     0.063775907026131
1 29
    -0.003402688474972    -0.000200898729278    -0.001915756195776
    -0.000200898729278    -0.003402688474971    -0.001915756195776
     0.001915756195776     0.001915756195775    -0.001410675150825
1 30
    -0.003407328894854     0.000203583046918    -0.001915756195776
     0.000198214411637    -0.003407328894854     0.001915756195775
     0.001915756195776    -0.001915756195777    -0.002840233908489
1 31
    -0.003407328894855     0.000198214411637     0.001915756195776
     0.000203583046918    -0.003407328894855    -0.001915756195777
    -0.001915756195776     0.001915756195774    -0.002840233908490
1 32
    -0.003402688474971    -0.000200898729278     0.001915756195776
    -0.000200898729278    -0.003402688474970     0.001915756195775
    -0.001915756195776    -0.001915756195776    -0.001410675150825
1 33
     0.005137838539231     0.005088577793049     0.005088577793048
     0.005088577793049     0.005137838539231     0.005088577793049
     0.005088577793048     0.005088577793049     0.005137838539230
1 34
     0.003701248175902    -0.001632141251216    -0.001632141251216
    -0.001632141251216     0.004532180917060    -0.002679352365967
    -0.001632141251215    -0.002679352365967     0.004532180917060
1 35
     0.004532180917059    -0.001632141251215    -0.002679352365966
    -0.001632141251215     0.003701248175902    -0.001632141251216
    -0.002679352365965    -0.001632141251214     0.004532180917059
1 36
     0.002508531408212    -0.000584844208100     0.000257358430205
    -0.000584844208100     0.002508531408212     0.000257358430206
     0.000257358430205     0.000257358430206    -0.004368426033685
1 37
     0.004532180917060    -0.002679352365966    -0.001632141251215
    -0.002679352365966     0.004532180917059    -0.001632141251216
    -0.001632141251215    -0.001632141251215     0.003701248175903
1 38
     0.002508531408212     0.000257358430205    -0.000584844208100
     0.000257358430206    -0.004368426033687     0.000257358430205
    -0.000584844208101     0.000257358430206     0.002508531408212
1 39
    -0.004368426033686     0.000257358430204     0.000257358430205
     0.000257358430204     0.002508531408211    -0.000584844208101
     0.000257358430206    -0.000584844208102     0.002508531408212
1 40
    -3.495758993886635    -2.327504992496829    -2.327504992496830
    -2.327504992496829    -3.495758993886635    -2.327504992496831
    -2.327504992496830    -2.327504992496829    -3.495758993886634
1 41
    -0.003640853796559    -0.001254882948865    -0.001254882948865
    -0.001254882948866     0.002777077303582    -0.000111417424244
    -0.001254882948866    -0.000111417424244     0.002777077303582
1 42
    -3.496486566123761     2.328502517015490     2.328502517015490
     2.328502517015490    -3.496027539782005    -2.327978419280687
     2.328502517015490    -2.327978419280687    -3.496027539782004
1 43
     0.004532180917058     0.003203450100770     0.001108043516412
     0.003203450100770     0.004073154575302    -0.001632141251215
     0.001108043516412    -0.001632141251215     0.004160274517657
1 44
     0.002508531408212    -0.000781456165007     0.001108941942904
    -0.000781456165008    -0.003909399691930     0.000257358430205
     0.001108941942904     0.000257358430205     0.002049505066457
1 45
     0.004532180917058     0.001108043516412     0.003203450100770
     0.001108043516412     0.004160274517658    -0.001632141251214
     0.003203450100770    -0.001632141251214     0.004073154575303
1 46
     0.002508531408212     0.001108941942903    -0.000781456165008
     0.001108941942903     0.002049505066455     0.000257358430206
    -0.000781456165008     0.000257358430206    -0.003909399691930
1 47
     0.004410266302106    -0.004091053274388    -0.004091053274388
    -0.004091053274387     0.004869292643862     0.004615151009192
    -0.004091053274388     0.004615151009192     0.004869292643862
1 48
     0.004428820413026     0.000634616732554     0.000634616732555
     0.000634616732554     0.004800726812427    -0.002205925582110
     0.000634616732555    -0.002205925582110     0.004800726812427
1 49
     0.002777077303582    -0.001254882948865    -0.000111417424244
    -0.001254882948866    -0.003640853796559    -0.001254882948864
    -0.000111417424244    -0.001254882948865     0.002777077303582
1 50
     0.004073154575302     0.003203450100770    -0.001632141251215
     0.003203450100770     0.004532180917058     0.001108043516412
    -0.001632141251215     0.001108043516412     0.004160274517657
1 51
    -3.496027539782006     2.328502517015489    -2.327978419280687
     2.328502517015490    -3.496486566123759     2.328502517015490
    -2.327978419280687     2.328502517015490    -3.496027539782003
1 52
    -0.003909399691931    -0.000781456165008     0.000257358430205
    -0.000781456165009     0.002508531408212     0.001108941942903
     0.000257358430206     0.001108941942904     0.002049505066457
1 53
     0.004160274517657     0.001108043516412    -0.001632141251215
     0.001108043516412     0.004532180917059     0.003203450100770
    -0.001632141251214     0.003203450100769     0.004073154575303
1 54
     0.004869292643862    -0.004091053274389     0.004615151009191
    -0.004091053274388     0.004410266302107    -0.004091053274388
     0.004615151009190    -0.004091053274390     0.004869292643862
1 55
     0.002049505066456     0.001108941942903     0.000257358430205
     0.001108941942903     0.002508531408212    -0.000781456165008
     0.000257358430206    -0.000781456165007    -0.003909399691929
1 56
     0.004800726812428     0.000634616732555    -0.002205925582110
     0.000634616732555     0.004428820413027     0.000634616732554
    -0.002205925582110     0.000634616732553     0.004800726812426
1 57
     0.002777077303583    -0.000111417424243    -0.001254882948865
    -0.000111417424243     0.002777077303582    -0.001254882948865
    -0.001254882948866    -0.001254882948866    -0.003640853796560
1 58
     0.004073154575303    -0.001632141251215     0.003203450100770
    -0.001632141251215     0.004160274517658     0.001108043516413
     0.003203450100769     0.001108043516412     0.004532180917058
1 59
     0.004160274517657    -0.001632141251215     0.001108043516412
    -0.001632141251215     0.004073154575302     0.003203450100769
     0.001108043516412     0.003203450100771     0.004532180917058
1 60
     0.004869292643862     0.004615151009192    -0.004091053274388
     0.004615151009191     0.004869292643864    -0.004091053274388
    -0.004091053274387    -0.004091053274389     0.004410266302106
1 61
    -3.496027539782005    -2.327978419280687     2.328502517015490
    -2.327978419280687    -3.496027539782002     2.328502517015491
     2.328502517015491     2.328502517015489    -3.496486566123759
1 62
    -0.003909399691931     0.000257358430205    -0.000781456165008
     0.000257358430204     0.002049505066456     0.001108941942903
    -0.000781456165007     0.001108941942904     0.002508531408212
1 63
     0.002049505066456     0.000257358430205     0.001108941942903
     0.000257358430205    -0.003909399691929    -0.000781456165007
     0.001108941942903    -0.000781456165008     0.002508531408212
1 64
     0.004800726812428    -0.002205925582109     0.000634616732554
    -0.002205925582109     0.004800726812427     0.000634616732555
     0.000634616732555     0.000634616732554     0.004428820413025
2 1
     0.003399921466617     0.000822077779387     0.000822077779387
     0.000822077779387    -0.003093944366381    -0.000822077779384
     0.000822077779387    -0.000822077779384    -0.003093944366383
2 2
    14.888545800282044    -0.000822077779387    -0.000822077779387
    -0.000822077779387    14.888545800282047    -0.000822077779385
    -0.000822077779387    -0.000822077779385    14.888545800282042
2 3
    -0.000974501121615    -0.000822077779387     0.000822077779387
    -0.000822077779387    -0.000974501121615     0.000822077779387
     0.000822077779387     0.000822077779387     0.000738625255798
2 4
    -0.003093944366382     0.000822077779386    -0.000822077779387
     0.000822077779387     0.003399921466616     0.000822077779386
    -0.000822077779387     0.000822077779386    -0.003093944366387
2 5
    -0.000974501121613     0.000822077779387    -0.000822077779387
     0.000822077779387     0.000738625255794     0.000822077779386
    -0.000822077779387     0.000822077779386    -0.000974501121617
2 6
    -0.003093944366383    -0.000822077779387     0.000822077779387
    -0.000822077779387    -0.003093944366384     0.000822077779387
     0.000822077779387     0.000822077779387     0.003399921466619
2 7
    -0.016711995414139    -0.000822077779387    -0.000822077779387
    -0.000822077779387    -0.016711995414141    -0.000822077779384
    -0.000822077779387    -0.000822077779384    -0.016711995414142
2 8
     0.000738625255795     0.000822077779386     0.000822077779387
     0.000822077779386    -0.000974501121615    -0.000822077779386
     0.000822077779386    -0.000822077779386    -0.000974501121615
2 9
    -0.001410675150827     0.001915756195776     0.001915756195775
    -0.001915756195776    -0.003402688474972    -0.000200898729277
    -0.001915756195776    -0.000200898729278    -0.003402688474971
2 10
     0.063775907026124    -0.167241519916234    -0.167241519916234
     0.167241519916235    -0.146936485963434    -0.202568998603233
     0.167241519916235    -0.202568998603230    -0.146936485963436
2 11
    -0.002840233908491     0.001915756195776    -0.001915756195776
    -0.001915756195776    -0.003407328894856     0.000203583046918
     0.001915756195776     0.000198214411637    -0.003407328894855
2 12
     0.062346348268463    -0.167241519916235     0.167241519916234
     0.167241519916235    -0.146941126383315     0.202566314285592
    -0.167241519916235     0.202571682920871    -0.146941126383316
2 13
    -0.002840233908491    -0.001915756195776     0.001915756195776
     0.001915756195776    -0.003407328894855     0.000198214411638
    -0.001915756195776     0.000203583046918    -0.003407328894854
2 14
     0.062346348268464     0.167241519916235    -0.167241519916235
    -0.167241519916235    -0.146941126383315     0.202571682920871
     0.167241519916235     0.202566314285592    -0.146941126383315
2 15
    -0.001410675150827    -0.001915756195776    -0.001915756195776
     0.001915756195776    -0.003402688474971    -0.000200898729278
     0.001915756195776    -0.000200898729277    -0.003402688474970
2 16
     0.063775907026130     0.167241519916235     0.167241519916235
    -0.167241519916234    -0.146936485963429    -0.202568998603231
    -0.167241519916234    -0.202568998603233    -0.146936485963431
2 17
    -0.146941126383315     0.167241519916235     0.202566314285591
    -0.167241519916235     0.062346348268463     0.167241519916235
     0.202571682920872    -0.167241519916235    -0.146941126383316
2 18
    -0.146936485963435     0.167241519916235    -0.202568998603232
    -0.167241519916235     0.063775907026125    -0.167241519916234
    -0.202568998603231     0.167241519916236    -0.146936485963436
2 19
    -0.003407328894855    -0.001915756195775     0.000203583046917
     0.001915756195776    -0.002840233908494    -0.001915756195776
     0.000198214411637     0.001915756195777    -0.003407328894856
2 20
    -0.003402688474972    -0.001915756195776    -0.000200898729277
     0.001915756195776    -0.001410675150825     0.001915756195776
    -0.000200898729278    -0.001915756195777    -0.003402688474969
2 21
    -0.146936485963430    -0.167241519916235    -0.202568998603231
     0.167241519916235     0.063775907026130     0.167241519916236
    -0.202568998603232    -0.167241519916234    -0.146936485963431
2 22
    -0.146941126383315    -0.167241519916235     0.202571682920872
     0.167241519916235     0.062346348268463    -0.167241519916235
     0.202566314285591     0.167241519916235    -0.146941126383315
2 23
    -0.003402688474972     0.001915756195776    -0.000200898729277
    -0.001915756195776    -0.001410675150825    -0.001915756195777
    -0.000200898729277     0.001915756195776    -0.003402688474969
2 24
    -0.003407328894855     0.001915756195776     0.000198214411637
    -0.001915756195775    -0.002840233908494     0.001915756195777
     0.000203583046917    -0.001915756195776    -0.003407328894856
2 25
    -0.146941126383313     0.202566314285591     0.167241519916235
     0.202571682920872    -0.146941126383314    -0.167241519916235
    -0.167241519916235     0.167241519916235     0.062346348268464
2 26
    -0.146936485963436    -0.202568998603232     0.167241519916234
    -0.202568998603232    -0.146936485963435     0.167241519916235
    -0.167241519916234    -0.167241519916236     0.063775907026126
2 27
    -0.146936485963431    -0.202568998603232    -0.167241519916234
    -0.202568998603232    -0.146936485963430    -0.167241519916236
     0.167241519916235     0.167241519916235     0.063775907026131
2 28
    -0.146941126383313     0.202571682920872    -0.167241519916235
     0.202566314285591    -0.146941126383314     0.167241519916236
     0.167241519916235    -0.167241519916235     0.062346348268464
2 29
    -0.003407328894854     0.000203583046918    -0.001915756195776
     0.000198214411637    -0.003407328894854     0.001915756195775
     0.001915756195776    -0.001915756195777    -0.002840233908489
2 30
    -0.003402688474972    -0.000200898729278    -0.001915756195776
    -0.000200898729278    -0.003402688474971    -0.001915756195776
     0.001915756195776     0.001915756195775    -0.001410675150825
2 31
    -0.003402688474971    -0.000200898729278     0.001915756195776
    -0.000200898729278    -0.003402688474970     0.001915756195775
    -0.001915756195776    -0.001915756195776    -0.001410675150825
2 32
    -0.003407328894855     0.000198214411637     0.001915756195776
     0.000203583046918    -0.003407328894855    -0.001915756195777
    -0.001915756195776     0.001915756195774    -0.002840233908490
2 33
     0.003701248175902    -0.001632141251216    -0.001632141251216
    -0.001632141251216     0.004532180917060    -0.002679352365967
    -0.001632141251215    -0.002679352365967     0.004532180917060
2 34
     0.005137838539231     0.005088577793049     0.005088577793048
     0.005088577793049     0.005137838539231     0.005088577793049
     0.005088577793048     0.005088577793049     0.005137838539230
2 35
     0.002508531408212    -0.000584844208100     0.000257358430205
    -0.000584844208100     0.002508531408212     0.000257358430206
     0.000257358430205     0.000257358430206    -0.004368426033685
2 36
     0.004532180917059    -0.001632141251215    -0.002679352365966
    -0.001632141251215     0.003701248175902    -0.001632141251216
    -0.002679352365965    -0.001632141251214     0.004532180917059
2 37
     0.002508531408212     0.000257358430205    -0.000584844208100
     0.000257358430206    -0.004368426033687     0.000257358430205
    -0.000584844208101     0.000257358430206     0.002508531408212
2 38
     0.004532180917060    -0.002679352365966    -0.001632141251215
    -0.002679352365966     0.004532180917059    -0.001632141251216
    -0.001632141251215    -0.001632141251215     0.003701248175903
2 39
    -3.495758993886634    -2.327504992496829    -2.327504992496830
    -2.327504992496829    -3.495758993886634    -2.327504992496830
    -2.327504992496830    -2.327504992496829    -3.495758993886633
2 40
    -0.004368426033686     0.000257358430204     0.000257358430205
     0.000257358430204     0.002508531408211    -0.000584844208101
     0.000257358430206    -0.000584844208102     0.002508531408212
2 41
    -3.496486566123760     2.328502517015489     2.328502517015490
     2.328502517015490    -3.496027539782004    -2.327978419280687
     2.328502517015490    -2.327978419280686    -3.496027539782003
2 42
    -0.003640853796559    -0.001254882948865    -0.001254882948865
    -0.001254882948866     0.002777077303582    -0.000111417424244
    -0.001254882948866    -0.000111417424244     0.002777077303582
2 43
     0.002508531408212    -0.000781456165007     0.001108941942904
    -0.000781456165008    -0.003909399691930     0.000257358430205
     0.001108941942904     0.000257358430205     0.002049505066457
2 44
     0.004532180917058     0.003203450100770     0.001108043516412
     0.003203450100770     0.004073154575302    -0.001632141251215
     0.001108043516412    -0.001632141251215     0.004160274517657
2 45
     0.002508531408212     0.001108941942903    -0.000781456165008
     0.001108941942903     0.002049505066455     0.000257358430206
    -0.000781456165008     0.000257358430206    -0.003909399691930
2 46
     0.004532180917058     0.001108043516412     0.003203450100770
     0.001108043516412     0.004160274517658    -0.001632141251214
     0.003203450100770    -0.001632141251214     0.004073154575303
2 47
     0.004428820413026     0.000634616732554     0.000634616732555
     0.000634616732554     0.004800726812427    -0.002205925582110
     0.000634616732555    -0.002205925582110     0.004800726812427
2 48
     0.004410266302106    -0.004091053274388    -0.004091053274388
    -0.004091053274387     0.004869292643862     0.004615151009192
    -0.004091053274388     0.004615151009192     0.004869292643862
2 49
     0.004073154575302     0.003203450100770    -0.001632141251215
     0.003203450100770     0.004532180917058     0.001108043516412
    -0.001632141251215     0.001108043516412     0.004160274517657
2 50
     0.002777077303582    -0.001254882948865    -0.000111417424244
    -0.001254882948866    -0.003640853796559    -0.001254882948864
    -0.000111417424244    -0.001254882948865     0.002777077303582
2 51
    -0.003909399691931    -0.000781456165008     0.000257358430205
    -0.000781456165009     0.002508531408212     0.001108941942903
     0.000257358430206     0.001108941942904     0.002049505066457
2 52
    -3.496027539782005     2.328502517015489    -2.327978419280686
     2.328502517015490    -3.496486566123758     2.328502517015489
    -2.327978419280687     2.328502517015489    -3.496027539782002
2 53
     0.004869292643862    -0.004091053274389     0.004615151009191
    -0.004091053274388     0.004410266302107    -0.004091053274388
     0.004615151009190    -0.004091053274390     0.004869292643862
2 54
     0.004160274517657     0.001108043516412    -0.001632141251215
     0.001108043516412     0.004532180917059     0.003203450100770
    -0.001632141251214     0.003203450100769     0.004073154575303
2 55
     0.004800726812428     0.000634616732555    -0.002205925582110
     0.000634616732555     0.004428820413027     0.000634616732554
    -0.002205925582110     0.000634616732553     0.004800726812426
2 56
     0.002049505066456     0.001108941942903     0.000257358430205
     0.001108941942903     0.002508531408212    -0.000781456165008
     0.000257358430206    -0.000781456165007    -0.003909399691929
2 57
     0.004073154575303    -0.001632141251215     0.003203450100770
    -0.001632141251215     0.004160274517658     0.001108043516413
     0.003203450100769     0.001108043516412     0.004532180917058
2 58
     0.002777077303583    -0.000111417424243    -0.001254882948865
    -0.000111417424243     0.002777077303582    -0.001254882948865
    -0.001254882948866    -0.001254882948866    -0.003640853796560
2 59
     0.004869292643862     0.004615151009192    -0.004091053274388
     0.004615151009191     0.004869292643864    -0.004091053274388
    -0.004091053274387    -0.004091053274389     0.004410266302106
2 60
     0.004160274517657    -0.001632141251215     0.001108043516412
    -0.001632141251215     0.004073154575302     0.003203450100769
     0.001108043516412     0.003203450100771     0.004532180917058
2 61
    -0.003909399691931     0.000257358430205    -0.000781456165008
     0.000257358430204     0.002049505066456     0.001108941942903
    -0.000781456165007     0.001108941942904     0.002508531408212
2 62
    -3.496027539782004    -2.327978419280686     2.328502517015490
    -2.327978419280687    -3.496027539782002     2.328502517015490
     2.328502517015490     2.328502517015489    -3.496486566123759
2 63
     0.004800726812428    -0.002205925582109     0.000634616732554
    -0.002205925582109     0.004800726812427     0.000634616732555
     0.000634616732555     0.000634616732554     0.004428820413025
2 64
     0.002049505066456     0.000257358430205     0.001108941942903
     0.000257358430205    -0.003909399691929    -0.000781456165007
     0.001108941942903    -0.000781456165008     0.002508531408212
3 1
    -0.003093944366382     0.000822077779386    -0.000822077779387
     0.000822077779387     0.003399921466616     0.000822077779386
    -0.000822077779387     0.000822077779386    -0.003093944366387
3 2
    -0.000974501121615    -0.000822077779387     0.000822077779387
    -0.000822077779387    -0.000974501121615     0.000822077779387
     0.000822077779387     0.000822077779387     0.000738625255798
3 3
    14.888545800282044    -0.000822077779387    -0.000822077779387
    -0.000822077779387    14.888545800282047    -0.000822077779385
    -0.000822077779387    -0.000822077779385    14.888545800282042
3 4
     0.003399921466617     0.000822077779387     0.000822077779387
     0.000822077779387    -0.003093944366381    -0.000822077779384
     0.000822077779387    -0.000822077779384    -0.003093944366383
3 5
     0.000738625255795     0.000822077779386     0.000822077779387
     0.000822077779386    -0.000974501121615    -0.000822077779386
     0.000822077779386    -0.000822077779386    -0.000974501121615
3 6
    -0.016711995414139    -0.000822077779387    -0.000822077779387
    -0.000822077779387    -0.016711995414141    -0.000822077779384
    -0.000822077779387    -0.000822077779384    -0.016711995414142
3 7
    -0.003093944366383    -0.000822077779387     0.000822077779387
    -0.000822077779387    -0.003093944366384     0.000822077779387
     0.000822077779387     0.000822077779387     0.003399921466619
3 8
    -0.000974501121613     0.000822077779387    -0.000822077779387
     0.000822077779387     0.000738625255794     0.000822077779386
    -0.000822077779387     0.000822077779386    -0.000974501121617
3 9
     0.062346348268463    -0.167241519916235     0.167241519916234
     0.167241519916235    -0.146941126383315     0.202566314285592
    -0.167241519916235     0.202571682920871    -0.146941126383316
3 10
    -0.002840233908491     0.001915756195776    -0.001915756195776
    -0.001915756195776    -0.003407328894856     0.000203583046918
     0.001915756195776     0.000198214411637    -0.003407328894855
3 11
     0.063775907026124    -0.167241519916234    -0.167241519916234
     0.167241519916235    -0.146936485963434    -0.202568998603233
     0.167241519916235    -0.202568998603230    -0.146936485963436
3 12
    -0.001410675150827     0.001915756195776     0.001915756195775
    -0.001915756195776    -0.003402688474972    -0.000200898729277
    -0.001915756195776    -0.000200898729278    -0.003402688474971
3 13
     0.063775907026130     0.167241519916235     0.167241519916235
    -0.167241519916234    -0.146936485963429    -0.202568998603231
    -0.167241519916234    -0.202568998603233    -0.146936485963431
3 14
    -0.001410675150827    -0.001915756195776    -0.001915756195776
     0.001915756195776    -0.003402688474971    -0.000200898729278
     0.001915756195776    -0.000200898729277    -0.003402688474970
3 15
     0.062346348268464     0.167241519916235    -0.167241519916235
    -0.167241519916235    -0.146941126383315     0.202571682920871
     0.167241519916235     0.202566314285592    -0.146941126383315
3 16
    -0.002840233908491    -0.001915756195776     0.001915756195776
     0.001915756195776    -0.003407328894855     0.000198214411638
    -0.001915756195776     0.000203583046918    -0.003407328894854
3 17
    -0.003402688474972    -0.001915756195776    -0.000200898729277
     0.001915756195776    -0.001410675150825     0.001915756195776
    -0.000200898729278    -0.001915756195777    -0.003402688474969
3 18
    -0.003407328894855    -0.001915756195775     0.000203583046917
     0.001915756195776    -0.002840233908494    -0.001915756195776