 108
   1   1
    26.932326111183947    -0.000000000000000     0.000000000000002
    -0.000000000000000    26.932326111183933    -0.000000000000000
    -0.000000000000001    -0.000000000000001    27.542538193432463
   1   2
    -0.454105076541066    -0.299131486106306     0.210678506712430
     0.299159068738451     0.120360324542914    -0.007579123939674
    -0.210346779969500    -0.007566386019618     0.114711909791556
   1   3
    -0.454105076541066     0.299131486106306    -0.210678506712429
    -0.299159068738451     0.120360324542914    -0.007579123939674
     0.210346779969500    -0.007566386019618     0.114711909791554
   1   4
    -0.023244083186657    -0.050401356773060    -0.098775539513608
     0.547889200162111    -0.310500668811495     0.186242501580871
     0.111726072520114    -0.178382461282542     0.114711909791556
   1   5
    -0.023244083186657     0.050401356773060     0.098775539513609
    -0.547889200162111    -0.310500668811495     0.186242501580871
    -0.111726072520114    -0.178382461282542     0.114711909791556
   1   6
    -0.000000000000000    -0.000000000000000     0.000000000000001
    -0.000000000000000    -0.000000000000000    -0.000000000000000
    -0.000000000000000    -0.000000000000000    -0.000000000000001
   1   7
    -0.023267968269506     0.547902985616415     0.111902967198822
    -0.050387567137580    -0.310476783728646    -0.178663377641197
    -0.098620707449386     0.185948847302160     0.114711909791555
   1   8
    -0.000000000000000     0.000000000000000     0.000000000000001
    -0.000000000000000    -0.000000000000000    -0.000000000000000
     0.000000000000000    -0.000000000000000    -0.000000000000000
   1   9
    -0.023267968269506    -0.547902985616415    -0.111902967198821
     0.050387567137580    -0.310476783728646    -0.178663377641197
     0.098620707449386     0.185948847302160     0.114711909791556
   1  10
    -0.000000000000000    -0.000000000000000     0.000000000000000
    -0.000000000000000    -0.000000000000000    -0.000000000000000
    -0.000000000000000    -0.000000000000000    -0.000000000000000
   1  11
    -0.000000000000000    -0.000000000000000     0.000000000000000
    -0.000000000000000    -0.000000000000000    -0.000000000000000
    -0.000000000000000     0.000000000000000    -0.000000000000001
   1  12
    -0.000000000000000    -0.000000000000000     0.000000000000000
     0.000000000000000    -0.000000000000000    -0.000000000000000
    -0.000000000000000    -0.000000000000000    -0.000000000000000
   1  13
    -0.000000000000000    -0.000000000000000     0.000000000000000
    -0.000000000000000    -0.000000000000000    -0.000000000000000
    -0.000000000000000     0.000000000000000    -0.000000000000000
   1  14
    -0.000000000000000    -0.000000000000000     0.000000000000000
     0.000000000000000    -0.000000000000000    -0.000000000000000
     0.000000000000000     0.000000000000000    -0.000000000000001
   1  15
    -0.000000000000000    -0.000000000000000     0.000000000000000
    -0.000000000000000    -0.000000000000000    -0.000000000000000
    -0.000000000000000     0.000000000000000    -0.000000000000000
   1  16
    -0.000000000000000     0.000000000000000     0.000000000000001
    -0.000000000000000    -0.000000000000000    -0.000000000000000
     0.000000000000000    -0.000000000000000    -0.000000000000000
   1  17
    -0.000000000000000     0.000000000000000     0.000000000000001
    -0.000000000000000    -0.000000000000000    -0.000000000000000
     0.000000000000000     0.000000000000000    -0.000000000000001
   1  18
    -0.000000000000000     0.000000000000000     0.000000000000001
     0.000000000000000    -0.000000000000000    -0.000000000000000
    -0.000000000000000    -0.000000000000000    -0.000000000000000
   1  19
    -0.000000000000000    -0.000000000000000     0.000000000000000
    -0.000000000000000    -0.000000000000000    -0.000000000000000
    -0.000000000000000    -0.000000000000000     0.000000000000001
   1  20
    -0.000000000000000    -0.000000000000000     0.000000000000000
    -0.000000000000000    -0.000000000000000    -0.000000000000000
    -0.000000000000000     0.000000000000000    -0.000000000000000
   1  21
    -0.000000000000000    -0.000000000000000     0.000000000000000
    -0.000000000000000    -0.000000000000000    -0.000000000000000
    -0.000000000000000    -0.000000000000000    -0.000000000000000
   1  22
    -0.000000000000000    -0.000000000000000     0.000000000000000
    -0.000000000000000     0.000000000000000    -0.000000000000000
    -0.000000000000000     0.000000000000000    -0.000000000000001
   1  23
    -0.000000000000000    -0.000000000000000     0.000000000000000
    -0.000000000000000     0.000000000000000    -0.000000000000000
     0.000000000000000     0.000000000000000    -0.000000000000001
   1  24
    -0.000000000000000    -0.000000000000000     0.000000000000000
    -0.000000000000000    -0.000000000000000    -0.000000000000000
    -0.000000000000000     0.000000000000000    -0.000000000000001
   1  25
    -0.000000000000000     0.000000000000000     0.000000000000001
    -0.000000000000000    -0.000000000000000    -0.000000000000000
     0.000000000000000     0.000000000000000     0.000000000000000
   1  26
    -0.000000000000000     0.000000000000000     0.000000000000001
    -0.000000000000000    -0.000000000000000    -0.000000000000000
     0.000000000000000    -0.000000000000000    -0.000000000000001
   1  27
    -0.000000000000000     0.000000000000000     0.000000000000001
     0.000000000000000    -0.000000000000000    -0.000000000000000
    -0.000000000000000    -0.000000000000000    -0.000000000000000
   1  28
    -0.024800143562386     0.079241583423984     0.561214241178083
     0.079241584089958     0.066700155863813    -0.324017194578794
    -0.082082344110772     0.047390263268928    -0.269143113034606
   1  29
    -0.024800143562386    -0.079241583423984    -0.561214241178082
    -0.079241584089958     0.066700155863813    -0.324017194578794
     0.082082344110772     0.047390263268928    -0.269143113034606
   1  30
    -0.000000000000000     0.000000000000000     0.000000000000000
    -0.000000000000000    -0.000000000000000    -0.000000000000000
     0.000000000000000    -0.000000000000000     0.000000000000000
   1  31
    -0.000000000000000     0.000000000000000     0.000000000000001
    -0.000000000000000     0.000000000000000    -0.000000000000000
     0.000000000000000     0.000000000000000    -0.000000000000000
   1  32
    -0.000000000000000     0.000000000000000     0.000000000000001
    -0.000000000000000    -0.000000000000000    -0.000000000000000
    -0.000000000000000    -0.000000000000000     0.000000000000000
   1  33
    -0.000000000000000     0.000000000000000     0.000000000000001
    -0.000000000000000    -0.000000000000000    -0.000000000000000
    -0.000000000000000    -0.000000000000000    -0.000000000000001
   1  34
     0.112450305576913    -0.000000000000000     0.000000000000000
    -0.000000000000000    -0.070550293275486     0.648034389157587
    -0.000000000000000    -0.094780526537855    -0.269143113034606
   1  35
    -0.000000000000000    -0.000000000000000     0.000000000000001
    -0.000000000000000    -0.000000000000000    -0.000000000000000
    -0.000000000000000    -0.000000000000000    -0.000000000000000
   1  36
    -0.000000000000000    -0.000000000000000     0.000000000000001
    -0.000000000000000    -0.000000000000000    -0.000000000000000
     0.000000000000000     0.000000000000000    -0.000000000000000
   1  37
    -0.000000000000000     0.000000000000000     0.000000000000000
    -0.000000000000000    -0.000000000000000    -0.000000000000000
     0.000000000000000     0.000000000000000    -0.000000000000000
   1  38
    -0.000000000000000     0.000000000000000     0.000000000000000
    -0.000000000000000    -0.000000000000000    -0.000000000000000
     0.000000000000000    -0.000000000000000    -0.000000000000001
   1  39
    -0.000000000000000     0.000000000000000     0.000000000000000
    -0.000000000000000    -0.000000000000000    -0.000000000000000
     0.000000000000000    -0.000000000000000     0.000000000000000
   1  40
     0.000000000000000     0.000000000000000     0.000000000000001
    -0.000000000000000    -0.000000000000000    -0.000000000000000
     0.000000000000000    -0.000000000000000    -0.000000000000000
   1  41
    -0.000000000000000     0.000000000000000     0.000000000000001
    -0.000000000000000    -0.000000000000000    -0.000000000000000
    -0.000000000000000    -0.000000000000000     0.000000000000000
   1  42
    -0.000000000000000     0.000000000000000     0.000000000000001
     0.000000000000000    -0.000000000000000    -0.000000000000000
    -0.000000000000000    -0.000000000000000    -0.000000000000001
   1  43
    -0.000000000000000    -0.000000000000000     0.000000000000001
    -0.000000000000000    -0.000000000000000    -0.000000000000000
    -0.000000000000000     0.000000000000000    -0.000000000000001
   1  44
    -0.000000000000000    -0.000000000000000     0.000000000000001
    -0.000000000000000    -0.000000000000000    -0.000000000000000
    -0.000000000000000    -0.000000000000000    -0.000000000000000
   1  45
    -0.000000000000000    -0.000000000000000     0.000000000000001
    -0.000000000000000    -0.000000000000000    -0.000000000000000
     0.000000000000000     0.000000000000000    -0.000000000000000
   1  46
    -0.024905612076307     0.079296379757801     0.082192018139635
     0.079296380424235     0.066657960706317    -0.047453583997564
    -0.560175287242778     0.323417351523938    -0.269117679539638
   1  47
    -0.024905612076307    -0.079296379757801    -0.082192018139634
    -0.079296380424235     0.066657960706317    -0.047453583997564
     0.560175287242778     0.323417351523938    -0.269117679539637
   1  48
    -0.000000000000000     0.000000000000000     0.000000000000001
    -0.000000000000000    -0.000000000000000    -0.000000000000000
     0.000000000000000    -0.000000000000000    -0.000000000000001
   1  49
    -0.000000000000000     0.000000000000000     0.000000000000000
     0.000000000000000    -0.000000000000000    -0.000000000000000
     0.000000000000000     0.000000000000000    -0.000000000000000
   1  50
    -0.000000000000000     0.000000000000000     0.000000000000000
    -0.000000000000000    -0.000000000000000    -0.000000000000000
    -0.000000000000000    -0.000000000000000    -0.000000000000000
   1  51
    -0.000000000000000     0.000000000000000     0.000000000000000
    -0.000000000000000     0.000000000000000    -0.000000000000000
    -0.000000000000000     0.000000000000000     0.000000000000000
   1  52
     0.112439747097629    -0.000000000000000     0.000000000000001
    -0.000000000000000    -0.070687398467619     0.094907167995129
    -0.000000000000000    -0.646834703047876    -0.269117679539637
   1  53
    -0.000000000000000    -0.000000000000000     0.000000000000000
    -0.000000000000000    -0.000000000000000    -0.000000000000000
    -0.000000000000000    -0.000000000000000    -0.000000000000001
   1  54
    -0.000000000000000    -0.000000000000000     0.000000000000000
    -0.000000000000000    -0.000000000000000    -0.000000000000000
     0.000000000000000     0.000000000000000    -0.000000000000001
   1  55
    -1.984933896545120    -0.000000000000000    -0.000000000000001
     0.000000000000000    -1.984933896545119    -0.000000000000000
     0.000000000000000     0.000000000000000   -16.117285975459737
   1  56
    -0.000000000000000    -0.000000000000000    -0.000000000000000
    -0.000000000000000    -0.000000000000000    -0.000000000000000
     0.000000000000000     0.000000000000000     0.000000000000001
   1  57
    -0.000000000000000     0.000000000000000    -0.000000000000000
    -0.000000000000000    -0.000000000000000    -0.000000000000000
    -0.000000000000000    -0.000000000000000     0.000000000000001
   1  58
    -0.000000000000000    -0.000000000000000    -0.000000000000001
    -0.000000000000000    -0.000000000000000    -0.000000000000000
    -0.000000000000000     0.000000000000000     0.000000000000001
   1  59
    -0.000000000000000    -0.000000000000000    -0.000000000000001
    -0.000000000000000     0.000000000000000    -0.000000000000000
     0.000000000000000     0.000000000000000     0.000000000000001
   1  60
    -0.000000000000000    -0.000000000000000    -0.000000000000001
    -0.000000000000000    -0.000000000000000    -0.000000000000000
    -0.000000000000000    -0.000000000000000     0.000000000000001
   1  61
    -0.000000000000000     0.000000000000000    -0.000000000000001
    -0.000000000000000    -0.000000000000000    -0.000000000000000
    -0.000000000000000    -0.000000000000000     0.000000000000001
   1  62
    -0.000000000000000     0.000000000000000    -0.000000000000001
    -0.000000000000000    -0.000000000000000    -0.000000000000000
     0.000000000000000    -0.000000000000000     0.000000000000001
   1  63
     0.000000000000000     0.000000000000000    -0.000000000000001
     0.000000000000000     0.000000000000000    -0.000000000000000
    -0.000000000000000    -0.000000000000000     0.000000000000001
   1  64
    -0.000000000000000    -0.000000000000000    -0.000000000000000
    -0.000000000000000    -0.000000000000000    -0.000000000000000
    -0.000000000000000     0.000000000000000     0.000000000000001
   1  65
    -0.000000000000000    -0.000000000000000    -0.000000000000000
    -0.000000000000000    -0.000000000000000    -0.000000000000000
     0.000000000000000     0.000000000000000     0.000000000000001
   1  66
    -0.000000000000000    -0.000000000000000    -0.000000000000000
    -0.000000000000000    -0.000000000000000    -0.000000000000000
    -0.000000000000000    -0.000000000000000     0.000000000000001
   1  67
    -0.000000000000000    -0.000000000000000    -0.000000000000001
    -0.000000000000000    -0.000000000000000    -0.000000000000000
     0.000000000000000     0.000000000000000     0.000000000000001
   1  68
    -0.000000000000000    -0.000000000000000    -0.000000000000001
    -0.000000000000000    -0.000000000000000    -0.000000000000000
     0.000000000000000     0.000000000000000     0.000000000000001
   1  69
    -0.000000000000000    -0.000000000000000    -0.000000000000001
    -0.000000000000000    -0.000000000000000    -0.000000000000000
    -0.000000000000000     0.000000000000000     0.000000000000001
   1  70
    -0.000000000000000     0.000000000000000    -0.000000000000001
    -0.000000000000000    -0.000000000000000    -0.000000000000000
     0.000000000000000    -0.000000000000000     0.000000000000001
   1  71
    -0.000000000000000     0.000000000000000    -0.000000000000001
    -0.000000000000000    -0.000000000000000    -0.000000000000000
     0.000000000000000    -0.000000000000000     0.000000000000001
   1  72
     0.000000000000000     0.000000000000000    -0.000000000000001
    -0.000000000000000     0.000000000000000    -0.000000000000000
    -0.000000000000000    -0.000000000000000     0.000000000000001
   1  73
    -0.000000000000000    -0.000000000000000    -0.000000000000001
    -0.000000000000000    -0.000000000000000    -0.000000000000000
    -0.000000000000000     0.000000000000000     0.000000000000001
   1  74
    -0.000000000000000    -0.000000000000000    -0.000000000000001
    -0.000000000000000    -0.000000000000000    -0.000000000000000
     0.000000000000000     0.000000000000000     0.000000000000001
   1  75
    -0.000000000000000    -0.000000000000000    -0.000000000000001
    -0.000000000000000    -0.000000000000000    -0.000000000000000
    -0.000000000000000    -0.000000000000000     0.000000000000001
   1  76
    -0.000000000000000    -0.000000000000000    -0.000000000000001
    -0.000000000000000    -0.000000000000000    -0.000000000000000
    -0.000000000000000    -0.000000000000000    -0.000000000000000
   1  77
    -0.000000000000000    -0.000000000000000    -0.000000000000001
     0.000000000000000     0.000000000000000    -0.000000000000000
     0.000000000000000     0.000000000000000    -0.000000000000000
   1  78
    -0.000000000000000     0.000000000000000    -0.000000000000001
    -0.000000000000000    -0.000000000000000    -0.000000000000000
    -0.000000000000000    -0.000000000000000     0.000000000000000
   1  79
    -0.000000000000000     0.000000000000000    -0.000000000000000
    -0.000000000000000    -0.000000000000000    -0.000000000000000
     0.000000000000000    -0.000000000000000     0.000000000000001
   1  80
    -0.000000000000000     0.000000000000000    -0.000000000000000
    -0.000000000000000    -0.000000000000000    -0.000000000000000
     0.000000000000000     0.000000000000000     0.000000000000001
   1  81
    -0.000000000000000     0.000000000000000    -0.000000000000000
     0.000000000000000     0.000000000000000    -0.000000000000000
    -0.000000000000000    -0.000000000000000     0.000000000000001
   1  82
    -0.000000000000000     0.000000000000000    -0.000000000000000
    -0.000000000000000     0.000000000000000    -0.000000000000000
     0.000000000000000    -0.000000000000000     0.000000000000001
   1  83
    -0.000000000000000     0.000000000000000    -0.000000000000000
    -0.000000000000000     0.000000000000000    -0.000000000000000
    -0.000000000000000    -0.000000000000000     0.000000000000001
   1  84
    -0.000000000000000     0.000000000000000    -0.000000000000000
    -0.000000000000000    -0.000000000000000    -0.000000000000000
     0.000000000000000    -0.000000000000000     0.000000000000001
   1  85
     0.000000000000000     0.000000000000000    -0.000000000000000
    -0.000000000000000    -0.000000000000000    -0.000000000000000
     0.000000000000000     0.000000000000000     0.000000000000000
   1  86
    -0.000000000000000     0.000000000000000    -0.000000000000000
    -0.000000000000000    -0.000000000000000    -0.000000000000000
    -0.000000000000000    -0.000000000000000     0.000000000000000
   1  87
    -0.000000000000000     0.000000000000000    -0.000000000000000
    -0.000000000000000    -0.000000000000000    -0.000000000000000
     0.000000000000000     0.000000000000000    -0.000000000000000
   1  88
    -0.000000000000000    -0.000000000000000    -0.000000000000000
    -0.000000000000000    -0.000000000000000    -0.000000000000000
     0.000000000000000     0.000000000000000     0.000000000000001
   1  89
    -0.000000000000000    -0.000000000000000    -0.000000000000000
    -0.000000000000000    -0.000000000000000    -0.000000000000000
    -0.000000000000000     0.000000000000000     0.000000000000002
   1  90
    -0.000000000000000    -0.000000000000000    -0.000000000000000
    -0.000000000000000    -0.000000000000000    -0.000000000000000
    -0.000000000000000    -0.000000000000000     0.000000000000001
   1  91
    -0.000000000000000     0.000000000000000    -0.000000000000000
    -0.000000000000000    -0.000000000000000    -0.000000000000000
     0.000000000000000    -0.000000000000000     0.000000000000000
   1  92
     0.000000000000000     0.000000000000000    -0.000000000000000
    -0.000000000000000    -0.000000000000000    -0.000000000000000
    -0.000000000000000    -0.000000000000000     0.000000000000000
   1  93
    -0.000000000000000     0.000000000000000    -0.000000000000000
    -0.000000000000000    -0.000000000000000    -0.000000000000000
     0.000000000000000    -0.000000000000000     0.000000000000000
   1  94
     0.000000000000000     0.000000000000000    -0.000000000000001
     0.000000000000000     0.000000000000000    -0.000000000000000
     0.000000000000000     0.000000000000000     0.000000000000001
   1  95
    -0.000000000000000     0.000000000000000    -0.000000000000001
    -0.000000000000000    -0.000000000000000    -0.000000000000000
    -0.000000000000000    -0.000000000000000    -0.000000000000000
   1  96
     0.000000000000000     0.000000000000000    -0.000000000000001
    -0.000000000000000     0.000000000000000    -0.000000000000000
     0.000000000000000     0.000000000000000     0.000000000000001
   1  97
    -0.000000000000000    -0.000000000000000    -0.000000000000000
    -0.000000000000000    -0.000000000000000    -0.000000000000000
     0.000000000000000     0.000000000000000    -0.000000000000000
   1  98
    -0.000000000000000    -0.000000000000000    -0.000000000000000
    -0.000000000000000    -0.000000000000000    -0.000000000000000
    -0.000000000000000     0.000000000000000     0.000000000000001
   1  99
    -0.000000000000000    -0.000000000000000    -0.000000000000000
    -0.000000000000000    -0.000000000000000    -0.000000000000000
     0.000000000000000    -0.000000000000000    -0.000000000000001
   1 100
   -11.022158320010654     5.193156564671496    -3.663970086364378
     5.193156608316584    -5.025617613698223     2.115394124554462
    -3.658733789443119     2.112370929351616    -3.499590215113228
   1 101
   -11.022158320010654    -5.193156564671497     3.663970086364376
    -5.193156608316583    -5.025617613698223     2.115394124554462
     3.658733789443120     2.112370929351616    -3.499590215113228
   1 102
    -0.000000000000000     0.000000000000000    -0.000000000000000
    -0.000000000000000    -0.000000000000000    -0.000000000000000
     0.000000000000000     0.000000000000000     0.000000000000000
   1 103
     0.000000000000000     0.000000000000000    -0.000000000000000
    -0.000000000000000     0.000000000000000    -0.000000000000000
     0.000000000000000     0.000000000000000     0.000000000000000
   1 104
     0.000000000000000     0.000000000000000    -0.000000000000000
    -0.000000000000000    -0.000000000000000    -0.000000000000000
    -0.000000000000000     0.000000000000000     0.000000000000001
   1 105
    -0.000000000000000     0.000000000000000    -0.000000000000000
    -0.000000000000000    -0.000000000000000    -0.000000000000000
    -0.000000000000000     0.000000000000000     0.000000000000001
   1 106
    -2.027347260542013    -0.000000000000000    -0.000000000000001
    -0.000000000000000   -14.020428673166858    -4.230788249108924
     0.000000000000000    -4.224741858703231    -3.499590215113230
   1 107
    -0.000000000000000     0.000000000000000    -0.000000000000000
    -0.000000000000000    -0.000000000000000    -0.000000000000000
     0.000000000000000     0.000000000000000    -0.000000000000000
   1 108
    -0.000000000000000    -0.000000000000000    -0.000000000000000
    -0.000000000000000    -0.000000000000000    -0.000000000000000
     0.000000000000000     0.000000000000000     0.000000000000001
   2   1
    -0.454105076541066     0.299131486106306    -0.210678506712430
    -0.299159068738451     0.120360324542914    -0.007579123939674
     0.210346779969500    -0.007566386019618     0.114711909791556
   2   2
    26.932326111183947     0.000000000000000    -0.000000000000002
     0.000000000000000    26.932326111183933     0.000000000000000
     0.000000000000001    -0.000000000000001    27.542538193432463
   2   3
    -0.454105076541066    -0.299131486106306     0.210678506712429
     0.299159068738451     0.120360324542914    -0.007579123939674
    -0.210346779969500    -0.007566386019618     0.114711909791554
   2   4
     0.000000000000000     0.000000000000000    -0.000000000000001
     0.000000000000000     0.000000000000000     0.000000000000000
     0.000000000000000    -0.000000000000000    -0.000000000000001
   2   5
    -0.023244083186657    -0.050401356773060    -0.098775539513609
     0.547889200162111    -0.310500668811495     0.186242501580871
     0.111726072520114    -0.178382461282542     0.114711909791556
   2   6
    -0.023244083186657     0.050401356773060     0.098775539513608
    -0.547889200162111    -0.310500668811495     0.186242501580871
    -0.111726072520114    -0.178382461282542     0.114711909791556
   2   7
    -0.023267968269506    -0.547902985616415    -0.111902967198822
     0.050387567137580    -0.310476783728646    -0.178663377641197
     0.098620707449386     0.185948847302160     0.114711909791555
   2   8
    -0.023267968269506     0.547902985616415     0.111902967198821
    -0.050387567137580    -0.310476783728646    -0.178663377641197
    -0.098620707449386     0.185948847302160     0.114711909791556
   2   9
     0.000000000000000    -0.000000000000000    -0.000000000000001
     0.000000000000000     0.000000000000000     0.000000000000000
    -0.000000000000000    -0.000000000000000    -0.000000000000000
   2  10
     0.000000000000000     0.000000000000000    -0.000000000000000
     0.000000000000000     0.000000000000000     0.000000000000000
     0.000000000000000     0.000000000000000    -0.000000000000001
   2  11
     0.000000000000000     0.000000000000000    -0.000000000000000
     0.000000000000000     0.000000000000000     0.000000000000000
     0.000000000000000    -0.000000000000000    -0.000000000000000
   2  12
     0.000000000000000     0.000000000000000    -0.000000000000000
    -0.000000000000000    -0.000000000000000     0.000000000000000
     0.000000000000000    -0.000000000000000    -0.000000000000000
   2  13
     0.000000000000000     0.000000000000000    -0.000000000000000
     0.000000000000000     0.000000000000000     0.000000000000000
     0.000000000000000     0.000000000000000    -0.000000000000000
   2  14
     0.000000000000000     0.000000000000000    -0.000000000000000
    -0.000000000000000     0.000000000000000     0.000000000000000
    -0.000000000000000     0.000000000000000    -0.000000000000001
   2  15
     0.000000000000000     0.000000000000000    -0.000000000000000
     0.000000000000000     0.000000000000000     0.000000000000000
     0.000000000000000     0.000000000000000    -0.000000000000000
   2  16
     0.000000000000000    -0.000000000000000    -0.000000000000001
     0.000000000000000     0.000000000000000     0.000000000000000
    -0.000000000000000    -0.000000000000000    -0.000000000000000
   2  17
    -0.000000000000000    -0.000000000000000    -0.000000000000001
    -0.000000000000000     0.000000000000000     0.000000000000000
     0.000000000000000    -0.000000000000000    -0.000000000000000
   2  18
     0.000000000000000    -0.000000000000000    -0.000000000000001
     0.000000000000000     0.000000000000000     0.000000000000000
    -0.000000000000000     0.000000000000000    -0.000000000000001
   2  19
     0.000000000000000     0.000000000000000    -0.000000000000000
     0.000000000000000     0.000000000000000     0.000000000000000
     0.000000000000000     0.000000000000000    -0.000000000000000
   2  20
     0.000000000000000     0.000000000000000    -0.000000000000000
     0.000000000000000     0.000000000000000     0.000000000000000
     0.000000000000000    -0.000000000000000     0.000000000000001
   2  21
    -0.000000000000000     0.000000000000000    -0.000000000000000
     0.000000000000000    -0.000000000000000     0.000000000000000
     0.000000000000000    -0.000000000000000    -0.000000000000000
   2  22
     0.000000000000000     0.000000000000000    -0.000000000000000
     0.000000000000000     0.000000000000000     0.000000000000000
     0.000000000000000     0.000000000000000    -0.000000000000001
   2  23
     0.000000000000000     0.000000000000000    -0.000000000000000
     0.000000000000000     0.000000000000000     0.000000000000000
    -0.000000000000000     0.000000000000000    -0.000000000000001
   2  24
     0.000000000000000     0.000000000000000    -0.000000000000000
     0.000000000000000     0.000000000000000     0.000000000000000
     0.000000000000000     0.000000000000000    -0.000000000000001
   2  25
    -0.000000000000000    -0.000000000000000    -0.000000000000001
     0.000000000000000     0.000000000000000     0.000000000000000
    -0.000000000000000     0.000000000000000     0.000000000000000
   2  26
     0.000000000000000    -0.000000000000000    -0.000000000000001
    -0.000000000000000    -0.000000000000000     0.000000000000000
     0.000000000000000    -0.000000000000000    -0.000000000000000
   2  27
     0.000000000000000    -0.000000000000000    -0.000000000000001
     0.000000000000000     0.000000000000000     0.000000000000000
    -0.000000000000000    -0.000000000000000    -0.000000000000001
   2  28
     0.000000000000000    -0.000000000000000    -0.000000000000000
     0.000000000000000     0.000000000000000     0.000000000000000
    -0.000000000000000    -0.000000000000000     0.000000000000000
   2  29
    -0.024800143562386     0.079241583423984     0.561214241178082
     0.079241584089958     0.066700155863813    -0.324017194578794
    -0.082082344110772     0.047390263268928    -0.269143113034606
   2  30
    -0.024800143562386    -0.079241583423984    -0.561214241178083
    -0.079241584089958     0.066700155863813    -0.324017194578794
     0.082082344110772     0.047390263268928    -0.269143113034606
   2  31
    -0.000000000000000    -0.000000000000000    -0.000000000000001
     0.000000000000000     0.000000000000000     0.000000000000000
    -0.000000000000000     0.000000000000000    -0.000000000000000
   2  32
     0.000000000000000    -0.000000000000000    -0.000000000000001
     0.000000000000000     0.000000000000000     0.000000000000000
     0.000000000000000    -0.000000000000000    -0.000000000000001
   2  33
     0.000000000000000    -0.000000000000000    -0.000000000000001
     0.000000000000000     0.000000000000000     0.000000000000000
     0.000000000000000    -0.000000000000000     0.000000000000000
   2  34
     0.000000000000000     0.000000000000000    -0.000000000000001
     0.000000000000000     0.000000000000000     0.000000000000000
     0.000000000000000     0.000000000000000    -0.000000000000000
   2  35
     0.112450305576913     0.000000000000000    -0.000000000000000
     0.000000000000000    -0.070550293275486     0.648034389157587