  32
   1   1
    21.681562211775745    -0.000000000000000     0.000000000000001
    -0.000000000000000    21.681562211775738    -0.000000000000000
    -0.000000000000001    -0.000000000000000    21.524934937779985
   1   2
    -5.157996524585729    -0.000000000000000    -0.000000000000000
    -0.000000000000000     1.354880478368163    -0.790962883113308
     0.000000000000000    -0.790969514078258     1.498436072415981
   1   3
    -0.273338772370309     2.820158468131565     0.684993950224471
     2.820158468149964    -3.529777273847255     0.395481441556654
     0.684999692813039     0.395484757039129     1.498436072415981
   1   4
    -0.273338772370309    -2.820158468131565    -0.684993950224472
    -2.820158468149964    -3.529777273847254     0.395481441556654
    -0.684999692813039     0.395484757039129     1.498436072415981
   1   5
    -0.216382970742913    -0.000000000000000    -0.000000000000000
    -0.000000000000000    -0.216382970742913    -0.000000000000000
     0.000000000000000    -0.000000000000000    -1.360454666792353
   1   6
     0.206096904797986     0.000000000000000    -0.000000000000000
    -0.000000000000000    -0.087456146109435     0.200987341855944
    -0.000000000000000     0.200963096546889    -0.385429747449308
   1   7
    -0.014067883382580    -0.127112199721712    -0.174060143885788
    -0.127112199722541     0.132708642071131    -0.100493670927972
    -0.174039146833359    -0.100481548273445    -0.385429747449307
   1   8
    -0.014067883382580     0.127112199721712     0.174060143885787
     0.127112199722541     0.132708642071131    -0.100493670927972
     0.174039146833359    -0.100481548273445    -0.385429747449307
   1   9
    -0.134508850143523    -0.039963247652212     1.191518850304952
    -0.039963247652473    -0.180654433723066    -0.687923728970321
     1.993107481230074    -1.150721140808286    -1.373367643472872
   1  10
    -0.134508850143523     0.039963247652212    -1.191518850304952
     0.039963247652473    -0.180654433723066    -0.687923728970321
    -1.993107481230074    -1.150721140808286    -1.373367643472871
   1  11
    -0.203727225512837     0.000000000000000    -0.000000000000000
    -0.000000000000000    -0.111436058353752     1.375847457940643
     0.000000000000000     2.301442281616573    -1.373367643472871
   1  12
     0.231290000261234    -0.000000000000000    -0.000000000000000
     0.000000000000000     0.231290000261234    -0.000000000000000
    -0.000000000000000    -0.000000000000000    -0.371095038399997
   1  13
    -0.134487501398425    -0.039982034866021    -1.993192719322643
    -0.039982034866282    -0.180654778583868     1.150770353051484
    -1.191477630746950     0.687899930842925    -1.373324210889155
   1  14
    -0.134487501398425     0.039982034866021     1.993192719322642
     0.039982034866282    -0.180654778583868     1.150770353051484
     1.191477630746950     0.687899930842925    -1.373324210889154
   1  15
    -0.203738417176590    -0.000000000000000    -0.000000000000000
    -0.000000000000000    -0.111403862805703    -2.301540706102967
     0.000000000000000    -1.375799861685850    -1.373324210889155
   1  16
     0.231283317207140     0.000000000000000    -0.000000000000000
    -0.000000000000000     0.231283317207140    -0.000000000000000
    -0.000000000000000     0.000000000000000    -0.371113820057821
   1  17
    -1.602287996600429    -0.000000000000000    -0.000000000000000
    -0.000000000000000    -1.602287996600429    -0.000000000000000
     0.000000000000000    -0.000000000000000    -9.758536795587380
   1  18
     0.583624791043547     0.000000000000000     0.000000000000000
     0.000000000000000    -0.119628619534431     0.466363061969899
    -0.000000000000000     0.177200693928286    -0.555436227369369
   1  19
     0.056184733110063    -0.304517659428295    -0.403882259051311
    -0.304517659430282     0.407811438399052    -0.233181530984949
    -0.153460302510627    -0.088600346964143    -0.555436227369369
   1  20
     0.056184733110063     0.304517659428295     0.403882259051312
     0.304517659430282     0.407811438399052    -0.233181530984949
     0.153460302510627    -0.088600346964143    -0.555436227369368
   1  21
    -0.463192932055116     0.000000000000000     0.000000000000000
     0.000000000000000    -0.463192932055116    -0.000000000000000
     0.000000000000000    -0.000000000000000     1.203691798987413
   1  22
     0.460729150022025    -0.000000000000000     0.000000000000000
    -0.000000000000000    -0.213780117536527    -0.628653877592914
    -0.000000000000000    -0.127683945423452     0.276863548253712
   1  23
    -0.045152800646889    -0.292071080395918     0.544430228181280
    -0.292071080397823     0.292101833132387     0.314326938796457
     0.110577540392496     0.063841972711726     0.276863548253712
   1  24
    -0.045152800646889     0.292071080395918    -0.544430228181280
     0.292071080397823     0.292101833132387     0.314326938796457
    -0.110577540392496     0.063841972711726     0.276863548253711
   1  25
    -0.069948401640469     0.164749857475810     0.110411214052774
     0.164749857476885     0.120288347485374    -0.063745944155131
    -0.195803824571742     0.113047390824485     0.770428299337748
   1  26
    -0.069948401640469    -0.164749857475810    -0.110411214052774
    -0.164749857476885     0.120288347485374    -0.063745944155130
     0.195803824571742     0.113047390824485     0.770428299337748
   1  27
     0.215406722048296    -0.000000000000000     0.000000000000000
    -0.000000000000000    -0.165066776203391     0.127491888310261
    -0.000000000000000    -0.226094781648969     0.770428299337749
   1  28
    -0.217135291689528    -0.000000000000000     0.000000000000000
    -0.000000000000000    -0.217135291689528    -0.000000000000000
     0.000000000000000     0.000000000000000     0.144877599963455
   1  29
    -6.447203162607544     2.951857260428624    -2.080757912954085
     2.951857260447883    -3.038691994760790     1.201326141166404
    -2.437544294459088     1.407316854563000    -2.462978870270778
   1  30
    -6.447203162607543    -2.951857260428624     2.080757912954085
    -2.951857260447883    -3.038691994760789     1.201326141166404
     2.437544294459089     1.407316854563001    -2.462978870270779
   1  31
    -1.334436410837412    -0.000000000000000    -0.000000000000000
    -0.000000000000000    -8.151458746530921    -2.402652282332808
     0.000000000000000    -2.814633709126000    -2.462978870270779
   1  32
    -0.086050049796067    -0.000000000000000     0.000000000000000
    -0.000000000000000    -0.086050049796067    -0.000000000000000
     0.000000000000000    -0.000000000000000    -0.197877090634373
   2   1
    -5.157996524560486     0.000000000014572    -0.000000000000000
    -0.000000000003827     1.354880478374794    -0.790962883113308
     0.000000000002234    -0.790969514082129     1.498436072415981
   2   2
    21.681562211669643    -0.000000000061258    -0.000000000000000
    -0.000000000061258    21.681562211881840     0.000000000000001
     0.000000000000001    -0.000000000000000    21.524934937779985
   2   3
    -0.273338772361004    -2.820158468144592    -0.684993950224472
    -2.820158468126192    -3.529777273856560     0.395481441556654
    -0.684999692810805     0.395484757043000     1.498436072415981
   2   4
    -0.273338772376940     2.820158468146137     0.684993950224472
     2.820158468146137    -3.529777273872496     0.395481441556654
     0.684999692808570     0.395484757039129     1.498436072415981
   2   5
     0.206096904796977    -0.000000000000582     0.000000000000000
     0.000000000000247    -0.087456146109863     0.200987341855944
    -0.000000000000568     0.200963096547873    -0.385429747449307
   2   6
    -0.216382970741854     0.000000000000611     0.000000000000000
     0.000000000000611    -0.216382970743972    -0.000000000000000
    -0.000000000000000     0.000000000000000    -1.360454666792353
   2   7
    -0.014067883382870     0.127112199722374     0.174060143885788
     0.127112199721544     0.132708642071421    -0.100493670927972
     0.174039146832791    -0.100481548274428    -0.385429747449307
   2   8
    -0.014067883382152    -0.127112199722294    -0.174060143885787
    -0.127112199722294     0.132708642072139    -0.100493670927973
    -0.174039146832223    -0.100481548273445    -0.385429747449308
   2   9
    -0.134508850142978     0.039963247652787    -1.191518850304951
     0.039963247652787    -0.180654433724063    -0.687923728970322
    -1.993107481217070    -1.150721140808286    -1.373367643472871
   2  10
    -0.134508850142752    -0.039963247652027     1.191518850304952
    -0.039963247651767    -0.180654433723837    -0.687923728970322
     1.993107481223572    -1.150721140819548    -1.373367643472871
   2  11
     0.231290000260102    -0.000000000000653     0.000000000000000
    -0.000000000000653     0.231290000262366    -0.000000000000000
     0.000000000000000    -0.000000000000000    -0.371095038399997
   2  12
    -0.203727225511841     0.000000000000576    -0.000000000000000
     0.000000000000315    -0.111436058354297     1.375847457940643
    -0.000000000006502     2.301442281627835    -1.373367643472872
   2  13
    -0.134487501397880     0.039982034866597     1.993192719322642
     0.039982034866597    -0.180654778584865     1.150770353051483
     1.191477630739176     0.687899930842925    -1.373324210889155
   2  14
    -0.134487501397654    -0.039982034865837    -1.993192719322642
    -0.039982034865576    -0.180654778584639     1.150770353051483
    -1.191477630743063     0.687899930849657    -1.373324210889154
   2  15
     0.231283317206008    -0.000000000000653     0.000000000000000
    -0.000000000000653     0.231283317208272    -0.000000000000000
     0.000000000000000    -0.000000000000000    -0.371113820057821
   2  16
    -0.203738417175593     0.000000000000576     0.000000000000000
     0.000000000000315    -0.111403862806248    -2.301540706102968
     0.000000000003887    -1.375799861692582    -1.373324210889155
   2  17
     0.583624791040691    -0.000000000001649    -0.000000000000000
     0.000000000000338    -0.119628619535017     0.466363061969899
    -0.000000000000501     0.177200693929153    -0.555436227369368
   2  18
    -1.602287996592588     0.000000000004527     0.000000000000000
     0.000000000004527    -1.602287996608269    -0.000000000000000
    -0.000000000000000     0.000000000000000    -9.758536795587380
   2  19
     0.056184733108928     0.304517659429627     0.403882259051311
     0.304517659427640     0.407811438400188    -0.233181530984950
     0.153460302510126    -0.088600346965010    -0.555436227369369
   2  20
     0.056184733110649    -0.304517659429944    -0.403882259051311
    -0.304517659429944     0.407811438401908    -0.233181530984949
    -0.153460302509626    -0.088600346964143    -0.555436227369369
   2  21
     0.460729150019771    -0.000000000001302    -0.000000000000000
     0.000000000000604    -0.213780117537573    -0.628653877592914
     0.000000000000361    -0.127683945424077     0.276863548253711
   2  22
    -0.463192932052849     0.000000000001309    -0.000000000000000
     0.000000000001309    -0.463192932057383     0.000000000000000
    -0.000000000000000     0.000000000000000     1.203691798987413
   2  23
    -0.045152800647493     0.292071080397475    -0.544430228181280
     0.292071080395569     0.292101833132991     0.314326938796457
    -0.110577540392135     0.063841972712351     0.276863548253712
   2  24
    -0.045152800645843    -0.292071080397220     0.544430228181280
    -0.292071080397220     0.292101833134642     0.314326938796457
     0.110577540391775     0.063841972711726     0.276863548253712
   2  25
    -0.069948401639662    -0.164749857476419    -0.110411214052774
    -0.164749857476419     0.120288347486429    -0.063745944155130
     0.195803824570464     0.113047390824485     0.770428299337749
   2  26
    -0.069948401640592     0.164749857476814     0.110411214052774
     0.164749857475739     0.120288347485498    -0.063745944155130
    -0.195803824571103     0.113047390825591     0.770428299337748
   2  27
    -0.217135291688465     0.000000000000613    -0.000000000000000
     0.000000000000613    -0.217135291690590     0.000000000000000
    -0.000000000000000     0.000000000000000     0.144877599963455
   2  28
     0.215406722047242    -0.000000000000609    -0.000000000000000
     0.000000000000466    -0.165066776204199     0.127491888310261
     0.000000000000639    -0.226094781650076     0.770428299337748
   2  29
    -6.447203162567655    -2.951857260424854     2.080757912954085
    -2.951857260424854    -3.038691994767319     1.201326141166404
     2.437544294443184     1.407316854563000    -2.462978870270779
   2  30
    -6.447203162584334     2.951857260461283    -2.080757912954085
     2.951857260442024    -3.038691994783999     1.201326141166404
    -2.437544294451137     1.407316854576774    -2.462978870270779
   2  31
    -0.086050049795645     0.000000000000243    -0.000000000000000
     0.000000000000243    -0.086050049796488     0.000000000000000
    -0.000000000000000     0.000000000000000    -0.197877090634373
   2  32
    -1.334436410830883     0.000000000003771    -0.000000000000000
     0.000000000023029    -8.151458746570810    -2.402652282332808
     0.000000000007952    -2.814633709139773    -2.462978870270778
   3   1
    -0.273338772376940     2.820158468146137     0.684993950224472
     2.820158468146137    -3.529777273872496     0.395481441556654
     0.684999692808570     0.395484757039129     1.498436072415981
   3   2
    -0.273338772361004    -2.820158468144592    -0.684993950224472
    -2.820158468126192    -3.529777273856560     0.395481441556654
    -0.684999692810805     0.395484757043000     1.498436072415981
   3   3
    21.681562211669643    -0.000000000061258    -0.000000000000000
    -0.000000000061258    21.681562211881840     0.000000000000001
     0.000000000000001    -0.000000000000000    21.524934937779985
   3   4
    -5.157996524560486     0.000000000014572    -0.000000000000000
    -0.000000000003827     1.354880478374794    -0.790962883113308
     0.000000000002234    -0.790969514082129     1.498436072415981
   3   5
    -0.014067883382152    -0.127112199722294    -0.174060143885787
    -0.127112199722294     0.132708642072139    -0.100493670927973
    -0.174039146832223    -0.100481548273445    -0.385429747449308
   3   6
    -0.014067883382870     0.127112199722374     0.174060143885788
     0.127112199721544     0.132708642071421    -0.100493670927972
     0.174039146832791    -0.100481548274428    -0.385429747449307
   3   7
    -0.216382970741854     0.000000000000611     0.000000000000000
     0.000000000000611    -0.216382970743972    -0.000000000000000
    -0.000000000000000     0.000000000000000    -1.360454666792353
   3   8
     0.206096904796977    -0.000000000000582     0.000000000000000
     0.000000000000247    -0.087456146109863     0.200987341855944
    -0.000000000000568     0.200963096547873    -0.385429747449307
   3   9
    -0.203727225511841     0.000000000000576    -0.000000000000000
     0.000000000000315    -0.111436058354297     1.375847457940643
    -0.000000000006502     2.301442281627835    -1.373367643472872
   3  10
     0.231290000260102    -0.000000000000653     0.000000000000000
    -0.000000000000653     0.231290000262366    -0.000000000000000
     0.000000000000000    -0.000000000000000    -0.371095038399997
   3  11
    -0.134508850142752    -0.039963247652027     1.191518850304952
    -0.039963247651767    -0.180654433723837    -0.687923728970322
     1.993107481223572    -1.150721140819548    -1.373367643472871
   3  12
    -0.134508850142978     0.039963247652787    -1.191518850304951
     0.039963247652787    -0.180654433724063    -0.687923728970322
    -1.993107481217070    -1.150721140808286    -1.373367643472871
   3  13
    -0.203738417175593     0.000000000000576     0.000000000000000
     0.000000000000315    -0.111403862806248    -2.301540706102968
     0.000000000003887    -1.375799861692582    -1.373324210889155
   3  14
     0.231283317206008    -0.000000000000653     0.000000000000000
    -0.000000000000653     0.231283317208272    -0.000000000000000
     0.000000000000000    -0.000000000000000    -0.371113820057821
   3  15
    -0.134487501397654    -0.039982034865837    -1.993192719322642
    -0.039982034865576    -0.180654778584639     1.150770353051483
    -1.191477630743063     0.687899930849657    -1.373324210889154
   3  16
    -0.134487501397880     0.039982034866597     1.993192719322642
     0.039982034866597    -0.180654778584865     1.150770353051483
     1.191477630739176     0.687899930842925    -1.373324210889155
   3  17
     0.056184733110649    -0.304517659429944    -0.403882259051311
    -0.304517659429944     0.407811438401908    -0.233181530984949
    -0.153460302509626    -0.088600346964143    -0.555436227369369
   3  18
     0.056184733108928     0.304517659429627     0.403882259051311
     0.304517659427640     0.407811438400188    -0.233181530984950
     0.153460302510126    -0.088600346965010    -0.555436227369369
   3  19
    -1.602287996592588     0.000000000004527     0.000000000000000
     0.000000000004527    -1.602287996608269    -0.000000000000000
    -0.000000000000000     0.000000000000000    -9.758536795587380
   3  20
     0.583624791040691    -0.000000000001649    -0.000000000000000
     0.000000000000338    -0.119628619535017     0.466363061969899
    -0.000000000000501     0.177200693929153    -0.555436227369368
   3  21
    -0.045152800645843    -0.292071080397220     0.544430228181280
    -0.292071080397220     0.292101833134642     0.314326938796457
     0.110577540391775     0.063841972711726     0.276863548253712
   3  22
    -0.045152800647493     0.292071080397475    -0.544430228181280
     0.292071080395569     0.292101833132991     0.314326938796457
    -0.110577540392135     0.063841972712351     0.276863548253712
   3  23
    -0.463192932052849     0.000000000001309    -0.000000000000000
     0.000000000001309    -0.463192932057383     0.000000000000000
    -0.000000000000000     0.000000000000000     1.203691798987413
   3  24
     0.460729150019771    -0.000000000001302    -0.000000000000000
     0.000000000000604    -0.213780117537573    -0.628653877592914
     0.000000000000361    -0.127683945424077     0.276863548253711
   3  25
     0.215406722047242    -0.000000000000609    -0.000000000000000
     0.000000000000466    -0.165066776204199     0.127491888310261
     0.000000000000639    -0.226094781650076     0.770428299337748
   3  26
    -0.217135291688465     0.000000000000613    -0.000000000000000
     0.000000000000613    -0.217135291690590     0.000000000000000
    -0.000000000000000     0.000000000000000     0.144877599963455
   3  27
    -0.069948401640592     0.164749857476814     0.110411214052774
     0.164749857475739     0.120288347485498    -0.063745944155130
    -0.195803824571103     0.113047390825591     0.770428299337748
   3  28
    -0.069948401639662    -0.164749857476419    -0.110411214052774
    -0.164749857476419     0.120288347486429    -0.063745944155130
     0.195803824570464     0.113047390824485     0.770428299337749
   3  29
    -1.334436410830883     0.000000000003771    -0.000000000000000
     0.000000000023029    -8.151458746570810    -2.402652282332808
     0.000000000007952    -2.814633709139773    -2.462978870270778
   3  30
    -0.086050049795645     0.000000000000243    -0.000000000000000
     0.000000000000243    -0.086050049796488     0.000000000000000
    -0.000000000000000     0.000000000000000    -0.197877090634373
   3  31
    -6.447203162584334     2.951857260461283    -2.080757912954085
     2.951857260442024    -3.038691994783999     1.201326141166404
    -2.437544294451137     1.407316854576774    -2.462978870270779
   3  32
    -6.447203162567655    -2.951857260424854     2.080757912954085
    -2.951857260424854    -3.038691994767319     1.201326141166404
     2.437544294443184     1.407316854563000    -2.462978870270779
   4   1
    -0.273338772376940    -2.820158468146137    -0.684993950224472
    -2.820158468146137    -3.529777273872496     0.395481441556654
    -0.684999692808570     0.395484757039129     1.498436072415981
   4   2
    -0.273338772361004     2.820158468144592     0.684993950224472
     2.820158468126192    -3.529777273856560     0.395481441556654
     0.684999692810805     0.395484757043000     1.498436072415981
   4   3
    -5.157996524560486    -0.000000000014572     0.000000000000000
     0.000000000003827     1.354880478374794    -0.790962883113308
    -0.000000000002234    -0.790969514082129     1.498436072415981
   4   4
    21.681562211669643     0.000000000061258     0.000000000000000
     0.000000000061258    21.681562211881840     0.000000000000001
    -0.000000000000001    -0.000000000000000    21.524934937779985
   4   5
    -0.014067883382152     0.127112199722294     0.174060143885787
     0.127112199722294     0.132708642072139    -0.100493670927973
     0.174039146832223    -0.100481548273445    -0.385429747449308
   4   6
    -0.014067883382870    -0.127112199722374    -0.174060143885788
    -0.127112199721544     0.132708642071421    -0.100493670927972
    -0.174039146832791    -0.100481548274428    -0.385429747449307
   4   7
     0.206096904796977     0.000000000000582    -0.000000000000000
    -0.000000000000247    -0.087456146109863     0.200987341855944
     0.000000000000568     0.200963096547873    -0.385429747449307
   4   8
    -0.216382970741854    -0.000000000000611    -0.000000000000000
    -0.000000000000611    -0.216382970743972    -0.000000000000000
     0.000000000000000     0.000000000000000    -1.360454666792353
   4   9
     0.231290000260102     0.000000000000653    -0.000000000000000
     0.000000000000653     0.231290000262366    -0.000000000000000
    -0.000000000000000    -0.000000000000000    -0.371095038399997
   4  10
    -0.203727225511841    -0.000000000000576     0.000000000000000
    -0.000000000000315    -0.111436058354297     1.375847457940643
     0.000000000006502     2.301442281627835    -1.373367643472872
   4  11
    -0.134508850142752     0.039963247652027    -1.191518850304952
     0.039963247651767    -0.180654433723837    -0.687923728970322
    -1.993107481223572    -1.150721140819548    -1.373367643472871
   4  12
    -0.134508850142978    -0.039963247652787     1.191518850304951
    -0.039963247652787    -0.180654433724063    -0.687923728970322
     1.993107481217070    -1.150721140808286    -1.373367643472871
   4  13
     0.231283317206008     0.000000000000653    -0.000000000000000
     0.000000000000653     0.231283317208272    -0.000000000000000
    -0.000000000000000    -0.000000000000000    -0.371113820057821
   4  14
    -0.203738417175593    -0.000000000000576    -0.000000000000000
    -0.000000000000315    -0.111403862806248    -2.301540706102968
    -0.000000000003887    -1.375799861692582    -1.373324210889155
   4  15
    -0.134487501397654     0.039982034865837     1.993192719322642
     0.039982034865576    -0.180654778584639     1.150770353051483
     1.191477630743063     0.687899930849657    -1.373324210889154
   4  16
    -0.134487501397880    -0.039982034866597    -1.993192719322642
    -0.039982034866597    -0.180654778584865     1.150770353051483
    -1.191477630739176     0.687899930842925    -1.373324210889155
   4  17
     0.056184733110649     0.304517659429944     0.403882259051311
     0.304517659429944     0.407811438401908    -0.233181530984949
     0.153460302509626    -0.088600346964143    -0.555436227369369
   4  18
     0.056184733108928    -0.304517659429627    -0.403882259051311
    -0.304517659427640     0.407811438400188    -0.233181530984950
    -0.153460302510126    -0.088600346965010    -0.555436227369369
   4  19
     0.583624791040691     0.000000000001649     0.000000000000000
    -0.000000000000338    -0.119628619535017     0.466363061969899
     0.000000000000501     0.177200693929153    -0.555436227369368
   4  20
    -1.602287996592588    -0.000000000004527    -0.000000000000000
    -0.000000000004527    -1.602287996608269    -0.000000000000000
     0.000000000000000     0.000000000000000    -9.758536795587380
   4  21
    -0.045152800645843     0.292071080397220    -0.544430228181280
     0.292071080397220     0.292101833134642     0.314326938796457
    -0.110577540391775     0.063841972711726     0.276863548253712
   4  22
    -0.045152800647493    -0.292071080397475     0.544430228181280
    -0.292071080395569     0.292101833132991     0.314326938796457
     0.110577540392135     0.063841972712351     0.276863548253712
   4  23
     0.460729150019771     0.000000000001302     0.000000000000000
    -0.000000000000604    -0.213780117537573    -0.628653877592914
    -0.000000000000361    -0.127683945424077     0.276863548253711
   4  24
    -0.463192932052849    -0.000000000001309     0.000000000000000
    -0.000000000001309    -0.463192932057383     0.000000000000000
     0.000000000000000     0.000000000000000     1.203691798987413
   4  25
    -0.217135291688465    -0.000000000000613     0.000000000000000
    -0.000000000000613    -0.217135291690590     0.000000000000000
     0.000000000000000     0.000000000000000     0.144877599963455
   4  26
     0.215406722047242     0.000000000000609     0.000000000000000
    -0.000000000000466    -0.165066776204199     0.127491888310261
    -0.000000000000639    -0.226094781650076     0.770428299337748
   4  27
    -0.069948401640592    -0.164749857476814    -0.110411214052774
    -0.164749857475739     0.120288347485498    -0.063745944155130
     0.195803824571103     0.113047390825591     0.770428299337748
   4  28
    -0.069948401639662     0.164749857476419     0.110411214052774
     0.164749857476419     0.120288347486429    -0.063745944155130
    -0.195803824570464     0.113047390824485     0.770428299337749
   4  29
    -0.086050049795645    -0.000000000000243     0.000000000000000
    -0.000000000000243    -0.086050049796488     0.000000000000000
     0.000000000000000     0.000000000000000    -0.197877090634373
   4  30
    -1.334436410830883    -0.000000000003771     0.000000000000000
    -0.000000000023029    -8.151458746570810    -2.402652282332808
    -0.000000000007952    -2.814633709139773    -2.462978870270778
   4  31
    -6.447203162584334    -2.951857260461283     2.080757912954085
    -2.951857260442024    -3.038691994783999     1.201326141166404
     2.437544294451137     1.407316854576774    -2.462978870270779
   4  32
    -6.447203162567655     2.951857260424854    -2.080757912954085
     2.951857260424854    -3.038691994767319     1.201326141166404
    -2.437544294443184     1.407316854563000    -2.462978870270779
   5   1
    -0.216382970742913    -0.000000000000000    -0.000000000000000
     0.000000000000000    -0.216382970742913     0.000000000000000
     0.000000000000000    -0.000000000000000    -1.360454666792353
   5   2
     0.206096904797986     0.000000000000000    -0.000000000000000
     0.000000000000000    -0.087456146109435     0.200987341855944
    -0.000000000000000     0.200963096546889    -0.385429747449308
   5   3
    -0.014067883382580    -0.127112199721712    -0.174060143885788
    -0.127112199722541     0.132708642071131    -0.100493670927972
    -0.174039146833359    -0.100481548273445    -0.385429747449307
   5   4
    -0.014067883382580     0.127112199721712     0.174060143885787
     0.127112199722541     0.132708642071131    -0.100493670927972
     0.174039146833359    -0.100481548273445    -0.385429747449307
   5   5
    21.681562211775741    -0.000000000000000     0.000000000000001
     0.000000000000000    21.681562211775738     0.000000000000000
    -0.000000000000001    -0.000000000000000    21.524934937779985
   5   6
    -5.157996524585728    -0.000000000000000    -0.000000000000000
    -0.000000000000000     1.354880478368163    -0.790962883113308
     0.000000000000000    -0.790969514078258     1.498436072415981
   5   7
    -0.273338772370309     2.820158468131564     0.684993950224471
     2.820158468149963    -3.529777273847255     0.395481441556654
     0.684999692813039     0.395484757039129     1.498436072415981
   5   8
    -0.273338772370309    -2.820158468131564    -0.684993950224472
    -2.820158468149963    -3.529777273847254     0.395481441556654
    -0.684999692813039     0.395484757039129     1.498436072415981
   5   9
    -0.134487501398425    -0.039982034866021    -1.993192719322642
    -0.039982034866282    -0.180654778583868     1.150770353051484
    -1.191477630746950     0.687899930842925    -1.373324210889155
   5  10
    -0.134487501398425     0.039982034866021     1.993192719322641
     0.039982034866282    -0.180654778583868     1.150770353051484
     1.191477630746949     0.687899930842925    -1.373324210889154
   5  11
    -0.203738417176590    -0.000000000000000    -0.000000000000000
     0.000000000000000    -0.111403862805703    -2.301540706102967
     0.000000000000000    -1.375799861685850    -1.373324210889155
   5  12
     0.231283317207140     0.000000000000000    -0.000000000000000
     0.000000000000000     0.231283317207140     0.000000000000000
    -0.000000000000000     0.000000000000000    -0.371113820057821
   5  13
    -0.134508850143523    -0.039963247652212     1.191518850304951
    -0.039963247652473    -0.180654433723066    -0.687923728970321
     1.993107481230074    -1.150721140808286    -1.373367643472872
   5  14
    -0.134508850143523     0.039963247652212    -1.191518850304952
     0.039963247652473    -0.180654433723066    -0.687923728970321
    -1.993107481230074    -1.150721140808286    -1.373367643472871
   5  15
    -0.203727225512837     0.000000000000000    -0.000000000000000
    -0.000000000000000    -0.111436058353752     1.375847457940643