64   
1    

1    
  0.0100000000000000   0.0000000000000000   0.0000000000000000
  -0.1296921300    0.0000006700   -0.0000042800
   0.0001945900    0.0000016500   -0.0000001300
   0.0004351600   -0.0000044600    0.0000018500
  -0.0000447700    0.0000015000    0.0000004100
   0.0004374800    0.0000017700   -0.0000021000
  -0.0000466300    0.0000003700    0.0000018300
  -0.0038517300   -0.0000049800    0.0000042800
   0.0002095300    0.0000025800    0.0000013500
   0.0020320200   -0.0002357500   -0.0002374700
  -0.0001890300   -0.0002559100   -0.0002542600
  -0.0004930300   -0.0003976300   -0.0003234100
   0.0002193600   -0.0002394200   -0.0002354000
  -0.0004907500   -0.0003183000   -0.0003995300
   0.0002202800   -0.0002317500   -0.0002385100
   0.0315839800   -0.0216510700   -0.0216473200
  -0.0001217700   -0.0003257300   -0.0003279400
  -0.0042188600   -0.0008799300   -0.0008827300
  -0.0000049200   -0.0000803700   -0.0000766800
  -0.0042260900   -0.0008936500    0.0008976800
  -0.0000046200   -0.0000788100    0.0000844900
  -0.0042312700    0.0008974500   -0.0008980100
  -0.0000087000    0.0000804000   -0.0000796300
  -0.0042192000    0.0008828100    0.0008805500
  -0.0000072700    0.0000778400    0.0000785700
   0.0315862400    0.0216506500    0.0216502400
  -0.0001236800    0.0003283700    0.0003245300
  -0.0004906600    0.0003169700    0.0003949300
   0.0002203600    0.0002282800    0.0002390500
  -0.0004899300    0.0004011500    0.0003227600
   0.0002202900    0.0002377100    0.0002337700
   0.0020290000    0.0002373000    0.0002349300
  -0.0001913100    0.0002524000    0.0002570000
   0.0018468200    0.0008915600    0.0018167100
   0.0018634000    0.0008973900   -0.0018245000
   0.0003463500    0.0000741900   -0.0006120900
   0.0003504700    0.0000770900    0.0006110100
   0.0018458600   -0.0008848700   -0.0018159500
   0.0018631000   -0.0008992000    0.0018297400
   0.0003503400   -0.0000821700    0.0006174000
   0.0003512900   -0.0000772400   -0.0006199000
   0.0002141900    0.0002288400   -0.0002321500
  -0.0004941400    0.0003311000   -0.0003957900
  -0.0001231000    0.0003249200   -0.0003281000
   0.0318881300    0.0222394000   -0.0222400500
  -0.0001908800    0.0002583700   -0.0002548000
   0.0020397200    0.0002388800   -0.0002338900
   0.0002217500    0.0002303500   -0.0002294300
  -0.0004938700    0.0003921600   -0.0003228300
   0.0018484000    0.0018163000    0.0008856100
   0.0018662200   -0.0018273500    0.0008961200
   0.0018474400   -0.0018179900   -0.0008892700
   0.0018646800    0.0018275600   -0.0009001500
   0.0003494500   -0.0006161800    0.0000767600
   0.0003496400    0.0006135600    0.0000783200
   0.0003487600    0.0006128700   -0.0000775700
   0.0003473200   -0.0006130900   -0.0000754300
   0.0002149600   -0.0002306700    0.0002280900
  -0.0004938400   -0.0003918600    0.0003268300
  -0.0001865000   -0.0002581600    0.0002568300
   0.0020379900   -0.0002407800    0.0002354300
  -0.0001235300   -0.0003231300    0.0003269100
   0.0318878000   -0.0222367300    0.0222394900
   0.0002146800   -0.0002276300    0.0002313500
  -0.0004948200   -0.0003295700    0.0003944500
