32   
4    

1    
  0.0052371265451679   0.0000000000000000   0.0085189497914883
  -0.1118570100   -0.0007431200   -0.1436462300
   0.0269950200    0.0067636000    0.0292322800
  -0.0044298900   -0.0181410600    0.0256498600
   0.0072926100    0.0113767100    0.0328361700
   0.0011313400   -0.0000038200    0.0535893100
  -0.0010814500   -0.0017102100    0.0453364700
   0.0015511900    0.0015197500    0.0462473300
  -0.0014037000    0.0001857800    0.0444209100
  -0.0162796600    0.0100187500    0.0475202600
   0.0177343200    0.0096494300    0.0601246000
   0.0010472700   -0.0196399900    0.0538048600
  -0.0012003200   -0.0000062800    0.0452142400
   0.0107441500   -0.0055698300    0.0641031500
  -0.0094035700   -0.0060555200    0.0433531500
   0.0010908900    0.0116423000    0.0537434900
  -0.0012159500    0.0000017200    0.0452162300
   0.0082080800   -0.0000047800    0.0434811300
  -0.0030702100   -0.0015127300   -0.0373152900
   0.0010066500    0.0023486900   -0.0351984500
  -0.0016129500   -0.0008464200   -0.0394154800
   0.0024161500    0.0000002100   -0.0522626000
  -0.0024050000    0.0010751800   -0.0444176800
  -0.0006932500    0.0009831200   -0.0472663500
   0.0011705400   -0.0020693700   -0.0415615100
   0.0020308300   -0.0018227500   -0.0491828300
  -0.0012958000   -0.0000951900   -0.0480180600
  -0.0011286200    0.0019236300   -0.0485971000
   0.0011347100    0.0000025400   -0.0432870200
   0.0532171900   -0.0265967600   -0.0104666500
   0.0128071800    0.0033924500   -0.0319232600
   0.0070430800    0.0239256100   -0.0209599800
   0.0004561800    0.0000083400   -0.0403549700

1    
 -0.0052371265451679   0.0000000000000000  -0.0085189497914883
   0.1152411600   -0.0007701300    0.2230934500
  -0.0270314800   -0.0067128200    0.0547628900
   0.0043784000    0.0181356500    0.0583546600
  -0.0072413800   -0.0114241000    0.0511913700
  -0.0011351100   -0.0000031700    0.0304100200
   0.0010772500    0.0017140100    0.0387693100
  -0.0015610000   -0.0015241500    0.0378573900
   0.0014138000   -0.0001952900    0.0396772700
   0.0162696400   -0.0100061900    0.0366012800
  -0.0176326700   -0.0095384600    0.0242450800
  -0.0010866900    0.0195715900    0.0304054600
   0.0012222700   -0.0000058600    0.0388915600
  -0.0109648100    0.0057319000    0.0198273400
   0.0094880800    0.0060837700    0.0408317500
  -0.0010431200   -0.0117982500    0.0303450200
   0.0012065700    0.0000018000    0.0388932300
  -0.0085746900   -0.0000045000   -0.1227838400
   0.0030428700    0.0015065500   -0.0467781200
  -0.0010196000   -0.0023501400   -0.0488926000
   0.0015902400    0.0008338600   -0.0446489000
  -0.0024354500    0.0000000600   -0.0317542200
   0.0024208300   -0.0011001800   -0.0397000400
   0.0007177900   -0.0009882200   -0.0368469100
  -0.0011864200    0.0020776800   -0.0425470700
  -0.0020383300    0.0018283800   -0.0348999100
   0.0013079800    0.0001047900   -0.0360480900
   0.0011276700   -0.0019284200   -0.0354705500
  -0.0011396200    0.0000031000   -0.0408186100
  -0.0558475800    0.0283066600   -0.0742259600
  -0.0131858300   -0.0035437200   -0.0520938000
  -0.0069356400   -0.0240148500   -0.0629220900
  -0.0004451300    0.0000086300   -0.0437263800

17   
  0.0052371265451679   0.0000000000000000   0.0085189497914883
   0.0086030100    0.0000041700    0.1227565000
  -0.0030338200   -0.0039613200    0.0467529300
   0.0031296600    0.0035565800    0.0475368600
  -0.0037285700    0.0003991400    0.0459373300
   0.0024391700   -0.0000029000    0.0317688900
  -0.0024376400    0.0053617400    0.0396957200
  -0.0044137800   -0.0011417500    0.0391194900
   0.0048785200   -0.0042248200    0.0402821000
   0.0161917900   -0.0052599200    0.0502425600
   0.0528302800    0.0265478700    0.0761050800
   0.0069671200   -0.0205359200    0.0629347300
   0.0004244700    0.0000203600    0.0437544700
   0.0013012200   -0.0014007300    0.0344739100
  -0.0005808700    0.0003230100    0.0365057800
  -0.0011326300    0.0010865700    0.0354890100
   0.0011345000   -0.0000008800    0.0408139700
  -0.1014533300   -0.0007834300   -0.1921380400
   0.0198239600   -0.0002963100   -0.0528530900
  -0.0012102700   -0.0121360700   -0.0527039200
  -0.0016933400    0.0124301400   -0.0529944500
  -0.0006325400   -0.0000040300   -0.0379731600
   0.0013368300   -0.0003580300   -0.0369982200
  -0.0001483100   -0.0008561100   -0.0368271000
  -0.0007598000    0.0012120100   -0.0371704100
  -0.0051145400    0.0022888600   -0.0389460900
   0.0076406400    0.0050840200   -0.0311785100
  -0.0011578800   -0.0073648000   -0.0350771200
  -0.0002739000   -0.0000012800   -0.0419821900
   0.0073941100   -0.0048965200   -0.0312558400
  -0.0049430100   -0.0022126900   -0.0390026400
  -0.0010989800    0.0071250400   -0.0351150300
  -0.0002820600   -0.0000020100   -0.0419535200

17   
 -0.0052371265451679   0.0000000000000000  -0.0085189497914883
  -0.0081680400    0.0000043500   -0.0435088000
   0.0030896700    0.0039835500    0.0372853700
  -0.0031506600   -0.0036049000    0.0364613600
   0.0037519800   -0.0003843000    0.0380768300
  -0.0024019500   -0.0000025500    0.0522707200
   0.0024002000   -0.0053497800    0.0444119200
   0.0044021300    0.0011546700    0.0449929400
  -0.0048590500    0.0041899300    0.0438398700
  -0.0158568000    0.0051782100    0.0337964200
  -0.0501557200   -0.0248534600    0.0086139800
  -0.0070004800    0.0203996200    0.0209682000
  -0.0004642900    0.0000208400    0.0403808700
  -0.0013032600    0.0014113900    0.0496469600
   0.0005795800   -0.0003167400    0.0475774900
   0.0011348200   -0.0010863600    0.0486113900
  -0.0011282200   -0.0000002100    0.0432761700
   0.0979374000   -0.0007570000    0.1127886200
  -0.0197768800    0.0002966400   -0.0312187100
   0.0012076200    0.0121226600   -0.0313860900
   0.0017522300   -0.0124216400   -0.0310449100
   0.0006283400   -0.0000039300   -0.0461331400
  -0.0013350400    0.0003375300   -0.0471070700
   0.0001523900    0.0008602200   -0.0473059200
   0.0007453300   -0.0011997200   -0.0469085400
   0.0051048600   -0.0023089900   -0.0452263500
  -0.0075616100   -0.0049952400   -0.0527491300
   0.0010978800    0.0073122000   -0.0490013200
   0.0002801400   -0.0000013400   -0.0421437900
  -0.0075331300    0.0050240600   -0.0529961700
   0.0050017400    0.0022267900   -0.0451145500
   0.0011568100   -0.0072344800   -0.0490403600
   0.0002720000   -0.0000020300   -0.0421142500
