64   
8    

1    
  0.0090685103644611   0.0042145039931183  -0.0000087098594448
  -0.0732030200   -0.0231699800    0.0543419700
   0.0000974300   -0.0000171400   -0.0000328300
  -0.0041255100    0.0173966800   -0.0029142600
  -0.0001464400    0.0000216200    0.0000864600
  -0.0000700400   -0.0001375400   -0.0000342200
   0.0002767300    0.0000349400    0.0001175500
   0.0003600800    0.0001587000   -0.0001785300
  -0.0001721200    0.0000057100   -0.0000704400
   0.0056351800    0.0024126300   -0.0000219900
   0.0036193400   -0.0018136600    0.0003735600
   0.0036381100   -0.0018289700    0.0003794300
   0.0055379200    0.0023726000   -0.0000139300
   0.0003210500   -0.0000453800   -0.0000093500
   0.0004429000    0.0002071000    0.0001674000
   0.0004377900    0.0002067100    0.0001670100
   0.0003246000   -0.0000446100   -0.0000110600
  -0.0017231100   -0.0021880300   -0.0016010500
  -0.0000944400    0.0000712800    0.0000618000
  -0.0000489900    0.0024241500   -0.0039318400
  -0.0000562400   -0.0000778300   -0.0000194600
  -0.0000404100    0.0024146600   -0.0039806200
  -0.0000557800   -0.0000766900   -0.0000165800
  -0.0016923300   -0.0021587800   -0.0016153300
  -0.0000955900    0.0000690400    0.0000651700
   0.0019917800   -0.0011870300    0.0039801700
   0.0006799500   -0.0000051500   -0.0003908400
   0.0004951500    0.0009078900    0.0018062100
   0.0001384200   -0.0000369800   -0.0001433300
   0.0006732900   -0.0000056000   -0.0003902800
   0.0019735600   -0.0011542800    0.0039343900
   0.0001276700   -0.0000399100   -0.0001371700
   0.0005187700    0.0008932200    0.0017917500
   0.0093766000   -0.0004959000   -0.0569878400
   0.0086805400    0.0000330500   -0.0597521400
   0.0080967500    0.0002469900   -0.0593496900
   0.0087186400   -0.0000055400   -0.0598051900
   0.0083675100   -0.0000481700   -0.0594005900
   0.0085005800    0.0009688000   -0.0591615700
   0.0082701200    0.0000326400   -0.0593652000
   0.0084725300   -0.0007339600   -0.0595069400
  -0.0088793400   -0.0007307400    0.0596293500
  -0.0090880700    0.0000167000    0.0597816200
  -0.0088365300    0.0009818000    0.0599860300
  -0.0089876700   -0.0000344600    0.0597500300
  -0.0086222300   -0.0000191000    0.0593325000
  -0.0092764300    0.0002755100    0.0597557800
  -0.0086632500    0.0000495300    0.0593930800
  -0.0080743600   -0.0005802500    0.0619805100
   0.0086664300    0.0000160000   -0.0595325800
   0.0353601600    0.0019483600   -0.0881826700
   0.0088776900    0.0000112100   -0.0594585700
   0.0092978900    0.0002867500   -0.0586810900
   0.0088378700   -0.0000514300   -0.0596220600
   0.0089287100    0.0003096500   -0.0600317900
   0.0087627100    0.0000244400   -0.0595027400
   0.0084847600   -0.0002647400   -0.0598720500
  -0.0084679800    0.0003059600    0.0590711500
  -0.0085386300   -0.0000655400    0.0595098600
  -0.0088690200   -0.0002417600    0.0592769000
  -0.0086069100    0.0000375300    0.0596225500
   0.0186881100    0.0017963000    0.0296483000
  -0.0087066400    0.0000290200    0.0595861100
  -0.0080433600    0.0002956900    0.0604687200
  -0.0084928900   -0.0000037100    0.0596604200

1    
 -0.0033758173341898   0.0000000000000000   0.0094129621972142
   0.0835712900    0.0000000000   -0.1129722300
  -0.0000675600    0.0000000000   -0.0001605800
  -0.0014935400    0.0000000000   -0.0035715900
   0.0001434000    0.0000000000   -0.0001223900
  -0.0000075600    0.0000000000    0.0006488200
   0.0000160900    0.0000000000    0.0003912000
  -0.0003133900    0.0000000000    0.0006542800
  -0.0000121600    0.0000000000   -0.0001268500
  -0.0015178200   -0.0012158000   -0.0021201500
  -0.0015429500    0.0012310300   -0.0021472600
  -0.0015178200    0.0012158000   -0.0021201500
  -0.0015429500   -0.0012310300   -0.0021472600
  -0.0000562700   -0.0001529800    0.0002035800
  -0.0000635400    0.0001464400    0.0001977700
  -0.0000562700    0.0001529800    0.0002035800
  -0.0000635400   -0.0001464400    0.0001977700
  -0.0015498900    0.0048275900    0.0070124100
   0.0000582200   -0.0001049900    0.0000342500
  -0.0015498900   -0.0048275900    0.0070124100
   0.0000582200    0.0001049900    0.0000342500
  -0.0014981600   -0.0047505900    0.0068805500
   0.0000609800    0.0001123800    0.0000382600
  -0.0014981600    0.0047505900    0.0068805500
   0.0000609800   -0.0001123800    0.0000382600
   0.0026363200    0.0000000000    0.0029095500
  -0.0013055400    0.0000000000    0.0005201200
   0.0007477800    0.0000000000    0.0004511600
  -0.0001325300    0.0000000000    0.0001820000
  -0.0013010800    0.0000000000    0.0005145100
   0.0026241200    0.0000000000    0.0029018900
  -0.0001318400    0.0000000000    0.0001802300
   0.0007357600    0.0000000000    0.0004569200
   0.0088792600   -0.0001272200   -0.0595404000
   0.0089345000   -0.0001517400   -0.0596264700
   0.0088792600    0.0001272200   -0.0595404000
   0.0089345000    0.0001517400   -0.0596264700
   0.0090960100    0.0001233500   -0.0600385400
   0.0085756800    0.0002001600   -0.0592060200
   0.0090960100   -0.0001233500   -0.0600385400
   0.0085756800   -0.0002001600   -0.0592060200
  -0.0087794200   -0.0001989400    0.0599403600
  -0.0082452400   -0.0001330900    0.0591176000
  -0.0087794200    0.0001989400    0.0599403600
  -0.0082452400    0.0001330900    0.0591176000
  -0.0084179800    0.0001364800    0.0595195900
  -0.0085321600    0.0001889000    0.0595855000
  -0.0084179800   -0.0001364800    0.0595195900
  -0.0085321600   -0.0001889000    0.0595855000
   0.0086613200    0.0000000000   -0.0594620400
  -0.0303546800    0.0000000000   -0.0145949400
   0.0083936300    0.0000000000   -0.0595028800
   0.0075228300    0.0000000000   -0.0603044400
   0.0085643500    0.0000000000   -0.0597959300
   0.0092010900    0.0000000000   -0.0585646000
   0.0086535100    0.0000000000   -0.0597396700
   0.0093215900    0.0000000000   -0.0598583400
  -0.0081616100    0.0000000000    0.0605961100
  -0.0087660000    0.0000000000    0.0593658400
  -0.0080126500    0.0000000000    0.0592804300
  -0.0086737200    0.0000000000    0.0594353400
  -0.0454307000    0.0000000000    0.1023808700
  -0.0086899800    0.0000000000    0.0596915100
  -0.0097878200    0.0000000000    0.0588621300
  -0.0089531600    0.0000000000    0.0596514800

17   
  0.0090685103644611   0.0042145039931183  -0.0000087098594448
  -0.0019692900   -0.0016837800   -0.0000075600
  -0.0000378100   -0.0000452100   -0.0000097000
   0.0001599700    0.0019247700   -0.0035412300
  -0.0001052700    0.0000371600    0.0000631200
   0.0002243200    0.0019030400   -0.0035599900
  -0.0001073100    0.0000394700    0.0000689700
  -0.0019116800   -0.0016548500   -0.0000459600
  -0.0000398800   -0.0000467000   -0.0000040800
   0.0006798100   -0.0000066800   -0.0010211600
   0.0019851100   -0.0011678800    0.0032491600
   0.0001313200   -0.0000384700   -0.0000841200
   0.0005371200    0.0008978700    0.0009182100
   0.0019846000   -0.0011758000    0.0032408300
   0.0006738500   -0.0000043700   -0.0010046000
   0.0004804900    0.0009053600    0.0008698100
   0.0001309700   -0.0000377400   -0.0000784100
  -0.0772975900   -0.1202185600   -0.0618057600
   0.0002767000   -0.0002418700    0.0000677700
  -0.0037630600    0.0229690200   -0.0029661500
  -0.0000464000    0.0002061800   -0.0000107200
  -0.0001130700   -0.0003743100    0.0000120600
   0.0004904600    0.0014317500   -0.0001376900
   0.0004258500    0.0005269600   -0.0001170000
  -0.0002439500   -0.0011969300   -0.0001038200
   0.0020624200   -0.0026799800    0.0008649000
   0.0046012700    0.0028214500    0.0003237900
   0.0046422500    0.0028414200    0.0003385100
   0.0020680400   -0.0026613800    0.0008423700
   0.0003714800    0.0002268700   -0.0004105900
   0.0002158100   -0.0001271300   -0.0000107300
   0.0002112600   -0.0001417100   -0.0000058700
   0.0003824200    0.0002111200   -0.0004145800
   0.0056383700   -0.0001448300   -0.0586785200
   0.0084094600    0.0001169000   -0.0592640700
   0.0086156800    0.0000024900   -0.0589368100
   0.0090597900   -0.0001228000   -0.0599493300
   0.0085185100    0.0000392600   -0.0597716200
   0.0087674000   -0.0005734200   -0.0598591900
   0.0079540000   -0.0002303400   -0.0595216500
   0.0087169500    0.0005404000   -0.0595508300
  -0.0089266400    0.0001229200    0.0598789100
  -0.0117035900   -0.0001325300    0.0604737800
  -0.0082750600   -0.0001232400    0.0591869200
  -0.0087352700    0.0000014500    0.0602149600
  -0.0085712800   -0.0005751800    0.0592853700
  -0.0088195300    0.0000381900    0.0593728300
  -0.0086474300    0.0005463700    0.0595863700
  -0.0094209700   -0.0002239900    0.0596010500
   0.0085560600    0.0002156300   -0.0595453200
   0.0343972800    0.0408707300   -0.0292214400
   0.0085812100   -0.0001585300   -0.0595738400
   0.0189818900    0.0073261400   -0.0604935800
   0.0090275900   -0.0001389400   -0.0591266700
   0.0083138600   -0.0002680700   -0.0593601800
   0.0083205500   -0.0000600100   -0.0597758800
   0.0084124000    0.0001236200   -0.0590257900
   0.0016687600    0.0071938600    0.0587639000
  -0.0087829800   -0.0001485200    0.0595571600
   0.0170220200    0.0424579900    0.0913509300
  -0.0088085700    0.0002053400    0.0595880600
  -0.0089502900    0.0001206800    0.0601054400
  -0.0090336900   -0.0001113200    0.0593747400
  -0.0090540600   -0.0002580900    0.0597756800
  -0.0083326600   -0.0000912700    0.0600188400

17   
 -0.0033758173341898   0.0000000000000000   0.0094129621972142
  -0.0025799100    0.0032579900    0.0065616600
   0.0000529600    0.0001072400    0.0000328300
  -0.0025799100   -0.0032579900    0.0065616600
   0.0000529600   -0.0001072400    0.0000328300
  -0.0025313500   -0.0033200700    0.0065857200
   0.0000548000   -0.0001061800    0.0000370400
  -0.0025313500    0.0033200700    0.0065857200
   0.0000548000    0.0001061800    0.0000370400
  -0.0006480000    0.0000000000    0.0007480000
   0.0033646600    0.0000000000    0.0031738400
  -0.0001954600    0.0000000000    0.0001582800
   0.0017161700    0.0000000000    0.0008313400
   0.0033853500    0.0000000000    0.0031715700
  -0.0006613000    0.0000000000    0.0007479300
   0.0016388800    0.0000000000    0.0007526000
  -0.0001924000    0.0000000000    0.0001573200
  -0.0355558400    0.0000000000   -0.1858908900
  -0.0000314500    0.0000000000   -0.0001188500
  -0.0016864900    0.0000000000   -0.0089412600
   0.0000075800    0.0000000000    0.0000950900
   0.0000615300    0.0000000000    0.0003464600
  -0.0003252000    0.0000000000    0.0001209000
  -0.0002775000    0.0000000000    0.0005817700
  -0.0000160000    0.0000000000   -0.0001641600
  -0.0006386200    0.0016082400   -0.0016439900
  -0.0006246600   -0.0016058800   -0.0016651500
  -0.0006386200   -0.0016082400   -0.0016439900
  -0.0006246600    0.0016058800   -0.0016651500
  -0.0003277500   -0.0005067100    0.0002790000
  -0.0003250600    0.0005273700    0.0002757200
  -0.0003277500    0.0005067100    0.0002790000
  -0.0003250600   -0.0005273700    0.0002757200
   0.0106595200    0.0000000000   -0.0602800200
   0.0081957500    0.0000000000   -0.0596466300
   0.0089013200    0.0000000000   -0.0596580200
   0.0083610400    0.0000000000   -0.0593475200
   0.0088087000    0.0000000000   -0.0595514900
   0.0086000400    0.0000000000   -0.0595228000
   0.0089969000    0.0000000000   -0.0593041300
   0.0086957500    0.0000000000   -0.0596297400
  -0.0091605800    0.0000000000    0.0595036300
  -0.0067306900    0.0000000000    0.0588523300
  -0.0089709200    0.0000000000    0.0597738800
  -0.0084553000    0.0000000000    0.0594889300
  -0.0087406700    0.0000000000    0.0596346600
  -0.0085298800    0.0000000000    0.0596100300
  -0.0086698400    0.0000000000    0.0595123200
  -0.0083879000    0.0000000000    0.0598064100
   0.0087431500   -0.0001591900   -0.0596287400
   0.0179036800    0.0298315500   -0.0189437000
   0.0087431500    0.0001591900   -0.0596287400
   0.0179036800   -0.0298315500   -0.0189437000
   0.0088964500    0.0000494600   -0.0593929900
   0.0086726900    0.0001324000   -0.0597587500
   0.0088964500   -0.0000494600   -0.0593929900
   0.0086726900   -0.0001324000   -0.0597587500
   0.0013701000   -0.0312448000    0.1011116700
  -0.0086211200    0.0001892200    0.0595110300
   0.0013701000    0.0312448000    0.1011116700
  -0.0086211200   -0.0001892200    0.0595110300
  -0.0086731200   -0.0001231500    0.0593753600
  -0.0084511400   -0.0001349500    0.0597574200
  -0.0086731200    0.0001231500    0.0593753600
  -0.0084511400    0.0001349500    0.0597574200

33   
  0.0090685103644611   0.0042145039931183  -0.0000087098594448
  -0.0001993200    0.0011648400    0.0000294700
   0.0000439900   -0.0000264200    0.0001976400
   0.0001947800   -0.0014552400    0.0003158100
   0.0000190400    0.0000553300    0.0003171100
  -0.0003749000    0.0000966600    0.0003278100
   0.0002136600    0.0001537900    0.0000641200
  -0.0003480200   -0.0001129900    0.0002279400
  -0.0005804000    0.0000887200   -0.0003990600
   0.0273258800    0.0018759100   -0.0272502400
  -0.0000217900    0.0000274200   -0.0000194400
   0.0006135800    0.0002986300   -0.0008560700
   0.0001892800    0.0000001500   -0.0001999400
   0.0002324100    0.0003098000    0.0005731100
   0.0001530000   -0.0000558500   -0.0000427200
  -0.0001839900   -0.0002476600    0.0005530100
   0.0000789400    0.0000290200    0.0000202100
  -0.0030071700   -0.0001455400    0.0007925800
  -0.0002671200    0.0001199200   -0.0005562700
  -0.0000616200    0.0000096800    0.0001871400
   0.0003796500   -0.0001259300   -0.0001485500
  -0.0001472600    0.0000381100    0.0000746800
   0.0000939700   -0.0005752700   -0.0000273900
  -0.0007252000   -0.0002289400    0.0000232300
   0.0000258400    0.0005447900    0.0000318400
   0.0099278900    0.0080788400   -0.0009788400
  -0.0002002600    0.0000556600    0.0000660200
   0.0261500200    0.0415512100    0.0327727100
  -0.0000325200    0.0000018400   -0.0000295100
  -0.0002249200    0.0000378900   -0.0001407000
  -0.0000018800   -0.0008469500    0.0001698900
  -0.0004082200   -0.0001792800   -0.0000890300
  -0.0000115000    0.0006448300    0.0002511400
  -0.0468402900   -0.0514248400   -0.0695117100
   0.0088503900   -0.0001432200   -0.0595208200
   0.0074262300    0.0040599900   -0.0630731900
   0.0087317600    0.0000257000   -0.0597010700
   0.0083224700   -0.0002899300   -0.0596668600
   0.0091080800    0.0012861500   -0.0587234700
   0.0089662200    0.0003448700   -0.0594247600
   0.0084672400   -0.0010204500   -0.0596888900
  -0.0074259400   -0.0000486500    0.0670709700
  -0.0086827400   -0.0000947600    0.0594131500
  -0.0191625200   -0.0049784900    0.0587442400
  -0.0086235800    0.0000732900    0.0595142700
  -0.0127265800   -0.0010801900    0.0629764700
  -0.0088357600    0.0011931900    0.0590615900
  -0.0086440700    0.0003754100    0.0593351100
  -0.0095815300   -0.0014388700    0.0585759800
   0.0100797500   -0.0015246200   -0.0591875500
   0.0115476700    0.0016863700   -0.0602582900
   0.0113744900    0.0022260300   -0.0590719700
   0.0098373300   -0.0010063100   -0.0592392100
   0.0085618000    0.0004203100   -0.0596466500
   0.0086626000    0.0006486400   -0.0597552300
   0.0091297000   -0.0003315300   -0.0595421500
   0.0090152900   -0.0005576000   -0.0596801000
  -0.0067517500    0.0007972900    0.0579894400
  -0.0086399200    0.0002627500    0.0594886500
  -0.0075043600   -0.0008238900    0.0582716800
  -0.0089438700   -0.0003879300    0.0598242500
  -0.0080318900    0.0012113800    0.0607524400
  -0.0086063500    0.0004582500    0.0598793100
  -0.0088720200   -0.0006060500    0.0589684200
  -0.0090536900   -0.0004952400    0.0595682700

33   
 -0.0090685103644611  -0.0042145039931183   0.0000087098594448
   0.0001270000   -0.0012169200   -0.0000503800
  -0.0000461400    0.0000293100   -0.0002030600
  -0.0002092000    0.0014810400   -0.0003048600
  -0.0000262300   -0.0000566000   -0.0003184500
   0.0003729600   -0.0000975900   -0.0003375300
  -0.0002194700   -0.0001668800   -0.0000699800
   0.0003440400    0.0001138600   -0.0002359400
   0.0005632900   -0.0000779800    0.0003857000
  -0.0267293500   -0.0018704100    0.0264250700
   0.0000198800   -0.0000267100    0.0000165100
  -0.0006330200   -0.0002837600    0.0008629100
  -0.0001911600   -0.0000000100    0.0002037300
  -0.0002187900   -0.0003038900   -0.0005917400
  -0.0001459100    0.0000525900    0.0000471100
   0.0002016000    0.0002567100   -0.0005729600
  -0.0000783500   -0.0000260200   -0.0000157300
   0.0030613600    0.0001401900   -0.0008131100
   0.0002492200   -0.0001118400    0.0005562800
   0.0000602500   -0.0000041600   -0.0001868300
  -0.0004063800    0.0001120900    0.0001505100
   0.0001566100   -0.0000418500   -0.0000866300
  -0.0001012300    0.0005698200    0.0000346700
   0.0007462500    0.0002266000   -0.0000340300
  -0.0000379500   -0.0005397700   -0.0000233400
  -0.0100956200   -0.0078007500    0.0006952300
   0.0001996700   -0.0000600200   -0.0000666300
  -0.0259064500   -0.0404236300   -0.0317376300
   0.0000293200    0.0000028400    0.0000293800
   0.0002368300   -0.0000341500    0.0001330800
  -0.0000013500    0.0008659200   -0.0001789000
   0.0004125500    0.0001741300    0.0000859200
   0.0000162100   -0.0006664200   -0.0002525500
   0.0636175000    0.0500050300   -0.0496303100
   0.0084991300    0.0001380200   -0.0596187200
   0.0099650100   -0.0040770900   -0.0561151100
   0.0086173600   -0.0000192700   -0.0594337400
   0.0090450400    0.0003005000   -0.0594571300
   0.0082306200   -0.0013010900   -0.0604404400
   0.0083889300   -0.0003576800   -0.0597000400
   0.0088839900    0.0010346100   -0.0594556100
  -0.0100369700    0.0000422900    0.0520748900
  -0.0086762400    0.0000916100    0.0597327800
   0.0018201400    0.0050095100    0.0606538800
  -0.0087343400   -0.0000695800    0.0596262900
  -0.0046154100    0.0010585400    0.0560696000
  -0.0085092900   -0.0012219900    0.0600873100
  -0.0087104000   -0.0003829200    0.0597925900
  -0.0077415500    0.0014916000    0.0605870100
   0.0072885900    0.0015335300   -0.0599519800
   0.0057376200   -0.0017319700   -0.0588733300
   0.0060467000   -0.0022102600   -0.0600598300
   0.0074959400    0.0010335900   -0.0598866600
   0.0088060100   -0.0004176300   -0.0594769800
   0.0086903300   -0.0006356600   -0.0593923600
   0.0082405900    0.0003319400   -0.0595843900
   0.0083426200    0.0005509400   -0.0594560500
  -0.0106293600   -0.0008256900    0.0611782300
  -0.0086987500   -0.0002535300    0.0596393800
  -0.0098536600    0.0008487300    0.0608729900
  -0.0083964400    0.0003763800    0.0593049100
  -0.0093130400   -0.0011624800    0.0584048200
  -0.0087569700   -0.0004595700    0.0592417300
  -0.0084816000    0.0005659700    0.0601678700
  -0.0083125200    0.0004978700    0.0595525400

33   
 -0.0033758173341898   0.0000000000000000   0.0094129621972142
   0.0013609000    0.0020507800    0.0004577600
  -0.0002227600    0.0000792900   -0.0002341200
   0.0013609000   -0.0020507800    0.0004577600
  -0.0002227600   -0.0000792900   -0.0002341200
   0.0003310900   -0.0000777900   -0.0004959600
   0.0003221900    0.0003769900    0.0005165100
   0.0003310900    0.0000777900   -0.0004959600
   0.0003221900   -0.0003769900    0.0005165100
  -0.0393693300    0.0000000000    0.0419656300
   0.0000366200    0.0000000000    0.0001323700
   0.0006816600    0.0000000000   -0.0000506400
   0.0000318700    0.0000000000    0.0001845900
  -0.0005983300    0.0000000000    0.0006217600
  -0.0001134800    0.0000000000   -0.0002229900
  -0.0002379600    0.0000000000   -0.0006314900
   0.0000368000    0.0000000000   -0.0001388600
   0.0020700200    0.0000000000   -0.0006842300
   0.0004238500    0.0000000000    0.0002554900
   0.0006863200    0.0000000000    0.0000854500
  -0.0005444800    0.0000000000    0.0001384500
  -0.0001480300    0.0000000000   -0.0000778100
  -0.0003314500    0.0000000000   -0.0000363900
   0.0003170100    0.0000000000    0.0002509300
   0.0000069100    0.0000000000   -0.0000598700
   0.0092538300   -0.0298675400    0.0412372700
   0.0000505300   -0.0000423800   -0.0000621600
   0.0092538300    0.0298675400    0.0412372700
   0.0000505300    0.0000423800   -0.0000621600
   0.0005016600    0.0003261700   -0.0000138300
   0.0001286000   -0.0004350800    0.0001493900
   0.0005016600   -0.0003261700   -0.0000138300
   0.0001286000    0.0004350800    0.0001493900
   0.0172264600    0.0000000000   -0.1751969000
   0.0086508600    0.0000000000   -0.0594219000
   0.0054872400    0.0000000000   -0.0649597300
   0.0085048400    0.0000000000   -0.0593492400
   0.0087099800    0.0000000000   -0.0589773500
   0.0093884100    0.0000000000   -0.0587208200
   0.0087089000    0.0000000000   -0.0597721000
   0.0086209600    0.0000000000   -0.0596851900
  -0.0012793200    0.0000000000    0.0703283600
  -0.0088272200    0.0000000000    0.0599717200
  -0.0056986900    0.0000000000    0.0491189000
  -0.0087472000    0.0000000000    0.0596088100
  -0.0035746100    0.0000000000    0.0521485400
  -0.0091287400    0.0000000000    0.0585881100
  -0.0089084200    0.0000000000    0.0594268700
  -0.0093561600    0.0000000000    0.0586703000
   0.0077120800    0.0018515100   -0.0601842400
   0.0083590400   -0.0003846000   -0.0599630900
   0.0077120800   -0.0018515100   -0.0601842400
   0.0083590400    0.0003846000   -0.0599630900
   0.0084558000   -0.0000593400   -0.0593721600
   0.0085811600   -0.0001186000   -0.0593314400
   0.0084558000    0.0000593400   -0.0593721600
   0.0085811600    0.0001186000   -0.0593314400
  -0.0107635400   -0.0006474400    0.0612036400
  -0.0085335700   -0.0004807600    0.0592146800
  -0.0107635400    0.0006474400    0.0612036400
  -0.0085335700    0.0004807600    0.0592146800
  -0.0084483700    0.0016361000    0.0608231500
  -0.0084512900    0.0001708000    0.0592992000
  -0.0084483700   -0.0016361000    0.0608231500
  -0.0084512900   -0.0001708000    0.0592992000

33   
  0.0033758173341898   0.0000000000000000  -0.0094129621972142
  -0.0013979800   -0.0020732200   -0.0004486300
   0.0002248200   -0.0000768500    0.0002273100
  -0.0013979800    0.0020732200   -0.0004486300
   0.0002248200    0.0000768500    0.0002273100
  -0.0003303700    0.0000785500    0.0004880900
  -0.0003252900   -0.0003784800   -0.0005210500
  -0.0003303700   -0.0000785500    0.0004880900
  -0.0003252900    0.0003784800   -0.0005210500
   0.0414378900    0.0000000000   -0.0440276300
  -0.0000367200    0.0000000000   -0.0001354300
  -0.0007071100    0.0000000000    0.0000717400
  -0.0000329700    0.0000000000   -0.0001860000
   0.0005834400    0.0000000000   -0.0006058400
   0.0001133600    0.0000000000    0.0002228100
   0.0002462300    0.0000000000    0.0005993600
  -0.0000362500    0.0000000000    0.0001367600
  -0.0020480400    0.0000000000    0.0006757600
  -0.0004109400    0.0000000000   -0.0002458100
  -0.0006872500    0.0000000000   -0.0000694900
   0.0005373700    0.0000000000   -0.0001227500
   0.0001532600    0.0000000000    0.0000704300
   0.0003388600    0.0000000000    0.0000404100
  -0.0003160100    0.0000000000   -0.0002576200
   0.0000009600    0.0000000000    0.0000618100
  -0.0087552500    0.0291150000   -0.0404779900
  -0.0000488900    0.0000429800    0.0000625400
  -0.0087552500   -0.0291150000   -0.0404779900
  -0.0000488900   -0.0000429800    0.0000625400
  -0.0005062100   -0.0003334400    0.0000104200
  -0.0001327500    0.0004495900   -0.0001531100
  -0.0005062100    0.0003334400    0.0000104200
  -0.0001327500   -0.0004495900   -0.0001531100
  -0.0030315300    0.0000000000    0.0565436200
   0.0086909900    0.0000000000   -0.0597342500
   0.0117703800    0.0000000000   -0.0543647900
   0.0088308500    0.0000000000   -0.0598086300
   0.0086341300    0.0000000000   -0.0601883300
   0.0079388600    0.0000000000   -0.0604588400
   0.0086217700    0.0000000000   -0.0593938200
   0.0087156700    0.0000000000   -0.0594776300
  -0.0159014600    0.0000000000    0.0489594300
  -0.0085105500    0.0000000000    0.0591854700
  -0.0114984300    0.0000000000    0.0700598000
  -0.0085930600    0.0000000000    0.0595505800
  -0.0137617900    0.0000000000    0.0670684800
  -0.0081941600    0.0000000000    0.0605983300
  -0.0084219500    0.0000000000    0.0597543700
  -0.0079588500    0.0000000000    0.0605131900
   0.0096039700   -0.0018043600   -0.0589875700
   0.0089633400    0.0003834800   -0.0592155300
   0.0096039700    0.0018043600   -0.0589875700
   0.0089633400   -0.0003834800   -0.0592155300
   0.0088716700    0.0000630600   -0.0597953900
   0.0087582800    0.0001167000   -0.0598379600
   0.0088716700   -0.0000630600   -0.0597953900
   0.0087582800   -0.0001167000   -0.0598379600
  -0.0065992900    0.0006186900    0.0579897800
  -0.0087910300    0.0005113100    0.0599678100
  -0.0065992900   -0.0006186900    0.0579897800
  -0.0087910300   -0.0005113100    0.0599678100
  -0.0088817600   -0.0016387600    0.0583116700
  -0.0088867500   -0.0001683100    0.0598618800
  -0.0088817600    0.0016387600    0.0583116700
  -0.0088867500    0.0001683100    0.0598618800
