  64
   1   1
    13.136183000000001    -0.000000000000000    -0.000000000000000
    -0.000000000000000    13.136183000000001    -0.000000000000000
    -0.000000000000000    -0.000000000000001    13.136183000000001
   1   2
    -0.027894000000000    -0.000000000000000    -0.000000000000000
    -0.000000000000000    -0.061532000000000    -0.000000000000000
    -0.000000000000000     0.000000000000000    -0.061532000000000
   1   3
    -0.061532000000000    -0.000000000000000    -0.000000000000000
    -0.000000000000000    -0.027894000000000    -0.000000000000000
    -0.000000000000000     0.000000000000000    -0.061532000000000
   1   4
    -0.053633000000000    -0.000000000000000    -0.000000000000000
    -0.000000000000000    -0.053633000000000    -0.000000000000000
    -0.000000000000000     0.000000000000000     0.281652000000000
   1   5
    -0.061532000000000    -0.000000000000000    -0.000000000000000
    -0.000000000000000    -0.061532000000000    -0.000000000000000
    -0.000000000000000     0.000000000000000    -0.027894000000000
   1   6
    -0.053633000000000    -0.000000000000000    -0.000000000000000
    -0.000000000000000     0.281652000000000    -0.000000000000000
    -0.000000000000000    -0.000000000000000    -0.053633000000000
   1   7
     0.281652000000000    -0.000000000000000    -0.000000000000000
    -0.000000000000000    -0.053633000000000    -0.000000000000000
    -0.000000000000000     0.000000000000000    -0.053633000000000
   1   8
    -0.040120000000000    -0.000000000000000    -0.000000000000000
    -0.000000000000000    -0.040120000000000    -0.000000000000000
    -0.000000000000000     0.000000000000000    -0.040120000000000
   1   9
     0.478889500000000    -0.108524500000000    -0.108524500000000
     0.108541000000000    -0.150169500000000    -0.212788500000000
     0.108541000000000    -0.212788500000000    -0.150169500000000
   1  10
     0.010476000000000    -0.005245000000000    -0.005245000000000
     0.005241500000000    -0.004189000000000     0.058301500000000
     0.005241500000000     0.058301500000000    -0.004189000000000
   1  11
     0.478889500000000    -0.108524500000000     0.108524500000000
     0.108541000000000    -0.150169500000000     0.212788500000000
    -0.108541000000000     0.212788500000000    -0.150169500000000
   1  12
     0.010476000000000    -0.005245000000000     0.005245000000000
     0.005241500000000    -0.004189000000000    -0.058301500000000
    -0.005241500000000    -0.058301500000000    -0.004189000000000
   1  13
     0.478889500000000     0.108524500000000    -0.108524500000000
    -0.108541000000000    -0.150169500000000     0.212788500000000
     0.108541000000000     0.212788500000000    -0.150169500000000
   1  14
     0.010476000000000     0.005245000000000    -0.005245000000000
    -0.005241500000000    -0.004189000000000    -0.058301500000000
     0.005241500000000    -0.058301500000000    -0.004189000000000
   1  15
     0.478889500000000     0.108524500000000     0.108524500000000
    -0.108541000000000    -0.150169500000000    -0.212788500000000
    -0.108541000000000    -0.212788500000000    -0.150169500000000
   1  16
     0.010476000000000     0.005245000000000     0.005245000000000
    -0.005241500000000    -0.004189000000000     0.058301500000000
    -0.005241500000000     0.058301500000000    -0.004189000000000
   1  17
    -0.150169500000000     0.108541000000000    -0.212788500000000
    -0.108524500000000     0.478889500000000    -0.108524500000000
    -0.212788500000000     0.108541000000000    -0.150169500000000
   1  18
    -0.150169500000000     0.108541000000000     0.212788500000000
    -0.108524500000000     0.478889500000000     0.108524500000000
     0.212788500000000    -0.108541000000000    -0.150169500000000
   1  19
    -0.004189000000000     0.005241500000000     0.058301500000000
    -0.005245000000000     0.010476000000000    -0.005245000000000
     0.058301500000000     0.005241500000000    -0.004189000000000
   1  20
    -0.004189000000000     0.005241500000000    -0.058301500000000
    -0.005245000000000     0.010476000000000     0.005245000000000
    -0.058301500000000    -0.005241500000000    -0.004189000000000
   1  21
    -0.150169500000000    -0.108541000000000     0.212788500000000
     0.108524500000000     0.478889500000000    -0.108524500000000
     0.212788500000000     0.108541000000000    -0.150169500000000
   1  22
    -0.150169500000000    -0.108541000000000    -0.212788500000000
     0.108524500000000     0.478889500000000     0.108524500000000
    -0.212788500000000    -0.108541000000000    -0.150169500000000
   1  23
    -0.004189000000000    -0.005241500000000    -0.058301500000000
     0.005245000000000     0.010476000000000    -0.005245000000000
    -0.058301500000000     0.005241500000000    -0.004189000000000
   1  24
    -0.004189000000000    -0.005241500000000     0.058301500000000
     0.005245000000000     0.010476000000000     0.005245000000000
     0.058301500000000    -0.005241500000000    -0.004189000000000
   1  25
    -0.150169500000000    -0.212788500000000     0.108541000000000
    -0.212788500000000    -0.150169500000000     0.108541000000000
    -0.108524500000000    -0.108524500000000     0.478889500000000
   1  26
    -0.150169500000000     0.212788500000000     0.108541000000000
     0.212788500000000    -0.150169500000000    -0.108541000000000
    -0.108524500000000     0.108524500000000     0.478889500000000
   1  27
    -0.150169500000000     0.212788500000000    -0.108541000000000
     0.212788500000000    -0.150169500000000     0.108541000000000
     0.108524500000000    -0.108524500000000     0.478889500000000
   1  28
    -0.150169500000000    -0.212788500000000    -0.108541000000000
    -0.212788500000000    -0.150169500000000    -0.108541000000000
     0.108524500000000     0.108524500000000     0.478889500000000
   1  29
    -0.004189000000000     0.058301500000000     0.005241500000000
     0.058301500000000    -0.004189000000000     0.005241500000000
    -0.005245000000000    -0.005245000000000     0.010476000000000
   1  30
    -0.004189000000000    -0.058301500000000     0.005241500000000
    -0.058301500000000    -0.004189000000000    -0.005241500000000
    -0.005245000000000     0.005245000000000     0.010476000000000
   1  31
    -0.004189000000000    -0.058301500000000    -0.005241500000000
    -0.058301500000000    -0.004189000000000     0.005241500000000
     0.005245000000000    -0.005245000000000     0.010476000000000
   1  32
    -0.004189000000000     0.058301500000000    -0.005241500000000
     0.058301500000000    -0.004189000000000    -0.005241500000000
     0.005245000000000     0.005245000000000     0.010476000000000
   1  33
     0.026340000000000    -0.048446000000000    -0.048446000000000
    -0.048446000000000     0.026340000000000    -0.048446000000000
    -0.048446000000000    -0.048446000000000     0.026340000000000
   1  34
    -0.195359500000000    -0.029931500000000    -0.029931500000000
    -0.029927000000000    -0.033808000000000    -0.034158000000000
    -0.029927000000000    -0.034158000000000    -0.033808000000000
   1  35
    -0.033808000000000    -0.029927000000000    -0.034158000000000
    -0.029931500000000    -0.195359500000000    -0.029931500000000
    -0.034158000000000    -0.029927000000000    -0.033808000000000
   1  36
     0.042559500000000    -0.050182500000000    -0.042066000000000
    -0.050182500000000     0.042559500000000    -0.042066000000000
    -0.042066000000000    -0.042066000000000    -0.003555500000000
   1  37
    -0.033808000000000    -0.034158000000000    -0.029927000000000
    -0.034158000000000    -0.033808000000000    -0.029927000000000
    -0.029931500000000    -0.029931500000000    -0.195359500000000
   1  38
     0.042559500000000    -0.042066000000000    -0.050182500000000
    -0.042066000000000    -0.003555500000000    -0.042066000000000
    -0.050182500000000    -0.042066000000000     0.042559500000000
   1  39
    -0.003555500000000    -0.042066000000000    -0.042066000000000
    -0.042066000000000     0.042559500000000    -0.050182500000000
    -0.042066000000000    -0.050182500000000     0.042559500000000
   1  40
    -3.305448999999999    -2.071266000000000    -2.071266000000000
    -2.071266000000000    -3.305448999999999    -2.071266000000000
    -2.071266000000000    -2.071266000000000    -3.305448999999999
   1  41
    -0.003555500000000     0.042066000000000     0.042066000000000
     0.042066000000000     0.042559500000000    -0.050182500000000
     0.042066000000000    -0.050182500000000     0.042559500000000
   1  42
    -3.305448999999999     2.071266000000000     2.071266000000000
     2.071266000000000    -3.305448999999999    -2.071266000000000
     2.071266000000000    -2.071266000000000    -3.305448999999999
   1  43
    -0.033808000000000     0.034158000000000     0.029927000000000
     0.034158000000000    -0.033808000000000    -0.029927000000000
     0.029931500000000    -0.029931500000000    -0.195359500000000
   1  44
     0.042559500000000     0.042066000000000     0.050182500000000
     0.042066000000000    -0.003555500000000    -0.042066000000000
     0.050182500000000    -0.042066000000000     0.042559500000000
   1  45
    -0.033808000000000     0.029927000000000     0.034158000000000
     0.029931500000000    -0.195359500000000    -0.029931500000000
     0.034158000000000    -0.029927000000000    -0.033808000000000
   1  46
     0.042559500000000     0.050182500000000     0.042066000000000
     0.050182500000000     0.042559500000000    -0.042066000000000
     0.042066000000000    -0.042066000000000    -0.003555500000000
   1  47
     0.026340000000000     0.048446000000000     0.048446000000000
     0.048446000000000     0.026340000000000    -0.048446000000000
     0.048446000000000    -0.048446000000000     0.026340000000000
   1  48
    -0.195359500000000     0.029931500000000     0.029931500000000
     0.029927000000000    -0.033808000000000    -0.034158000000000
     0.029927000000000    -0.034158000000000    -0.033808000000000
   1  49
     0.042559500000000     0.042066000000000    -0.050182500000000
     0.042066000000000    -0.003555500000000     0.042066000000000
    -0.050182500000000     0.042066000000000     0.042559500000000
   1  50
    -0.033808000000000     0.034158000000000    -0.029927000000000
     0.034158000000000    -0.033808000000000     0.029927000000000
    -0.029931500000000     0.029931500000000    -0.195359500000000
   1  51
    -3.305448999999999     2.071266000000000    -2.071266000000000
     2.071266000000000    -3.305448999999999     2.071266000000000
    -2.071266000000000     2.071266000000000    -3.305448999999999
   1  52
    -0.003555500000000     0.042066000000000    -0.042066000000000
     0.042066000000000     0.042559500000000     0.050182500000000
    -0.042066000000000     0.050182500000000     0.042559500000000
   1  53
    -0.195359500000000     0.029931500000000    -0.029931500000000
     0.029927000000000    -0.033808000000000     0.034158000000000
    -0.029927000000000     0.034158000000000    -0.033808000000000
   1  54
     0.026340000000000     0.048446000000000    -0.048446000000000
     0.048446000000000     0.026340000000000     0.048446000000000
    -0.048446000000000     0.048446000000000     0.026340000000000
   1  55
     0.042559500000000     0.050182500000000    -0.042066000000000
     0.050182500000000     0.042559500000000     0.042066000000000
    -0.042066000000000     0.042066000000000    -0.003555500000000
   1  56
    -0.033808000000000     0.029927000000000    -0.034158000000000
     0.029931500000000    -0.195359500000000     0.029931500000000
    -0.034158000000000     0.029927000000000    -0.033808000000000
   1  57
     0.042559500000000    -0.050182500000000     0.042066000000000
    -0.050182500000000     0.042559500000000     0.042066000000000
     0.042066000000000     0.042066000000000    -0.003555500000000
   1  58
    -0.033808000000000    -0.029927000000000     0.034158000000000
    -0.029931500000000    -0.195359500000000     0.029931500000000
     0.034158000000000     0.029927000000000    -0.033808000000000
   1  59
    -0.195359500000000    -0.029931500000000     0.029931500000000
    -0.029927000000000    -0.033808000000000     0.034158000000000
     0.029927000000000     0.034158000000000    -0.033808000000000
   1  60
     0.026340000000000    -0.048446000000000     0.048446000000000
    -0.048446000000000     0.026340000000000     0.048446000000000
     0.048446000000000     0.048446000000000     0.026340000000000
   1  61
    -3.305448999999999    -2.071266000000000     2.071266000000000
    -2.071266000000000    -3.305448999999999     2.071266000000000
     2.071266000000000     2.071266000000000    -3.305448999999999
   1  62
    -0.003555500000000    -0.042066000000000     0.042066000000000
    -0.042066000000000     0.042559500000000     0.050182500000000
     0.042066000000000     0.050182500000000     0.042559500000000
   1  63
     0.042559500000000    -0.042066000000000     0.050182500000000
    -0.042066000000000    -0.003555500000000     0.042066000000000
     0.050182500000000     0.042066000000000     0.042559500000000
   1  64
    -0.033808000000000    -0.034158000000000     0.029927000000000
    -0.034158000000000    -0.033808000000000     0.029927000000000
     0.029931500000000     0.029931500000000    -0.195359500000000
   2   1
    -0.027894000000000     0.000000000000000     0.000000000000000
     0.000000000000000    -0.061532000000000     0.000000000000000
     0.000000000000000     0.000000000000000    -0.061532000000000
   2   2
    13.136182999999997     0.000000000000000     0.000000000000000
     0.000000000000000    13.136182999999997    -0.000000000000001
     0.000000000000000     0.000000000000000    13.136182999999997
   2   3
    -0.053633000000000     0.000000000000000     0.000000000000000
     0.000000000000000    -0.053633000000000    -0.000000000000000
     0.000000000000000     0.000000000000000     0.281652000000000
   2   4
    -0.061532000000000     0.000000000000000     0.000000000000000
     0.000000000000000    -0.027894000000000     0.000000000000000
     0.000000000000000     0.000000000000000    -0.061532000000000
   2   5
    -0.053633000000000     0.000000000000000     0.000000000000000
     0.000000000000000     0.281652000000000     0.000000000000000
     0.000000000000000     0.000000000000000    -0.053633000000000
   2   6
    -0.061532000000000     0.000000000000000     0.000000000000000
     0.000000000000000    -0.061532000000000     0.000000000000000
     0.000000000000000     0.000000000000000    -0.027894000000000
   2   7
    -0.040120000000000     0.000000000000000     0.000000000000000
     0.000000000000000    -0.040120000000000     0.000000000000000
     0.000000000000000     0.000000000000000    -0.040120000000000
   2   8
     0.281652000000000     0.000000000000000     0.000000000000000
     0.000000000000000    -0.053633000000000     0.000000000000000
     0.000000000000000     0.000000000000000    -0.053633000000000
   2   9
     0.010476000000000    -0.005245000000000    -0.005245000000000
     0.005241500000000    -0.004189000000000     0.058301500000000
     0.005241500000000     0.058301500000000    -0.004189000000000
   2  10
     0.478889500000000    -0.108524500000000    -0.108524500000000
     0.108541000000000    -0.150169500000000    -0.212788500000000
     0.108541000000000    -0.212788500000000    -0.150169500000000
   2  11
     0.010476000000000    -0.005245000000000     0.005245000000000
     0.005241500000000    -0.004189000000000    -0.058301500000000
    -0.005241500000000    -0.058301500000000    -0.004189000000000
   2  12
     0.478889500000000    -0.108524500000000     0.108524500000000
     0.108541000000000    -0.150169500000000     0.212788500000000
    -0.108541000000000     0.212788500000000    -0.150169500000000
   2  13
     0.010476000000000     0.005245000000000    -0.005245000000000
    -0.005241500000000    -0.004189000000000    -0.058301500000000
     0.005241500000000    -0.058301500000000    -0.004189000000000
   2  14
     0.478889500000000     0.108524500000000    -0.108524500000000
    -0.108541000000000    -0.150169500000000     0.212788500000000
     0.108541000000000     0.212788500000000    -0.150169500000000
   2  15
     0.010476000000000     0.005245000000000     0.005245000000000
    -0.005241500000000    -0.004189000000000     0.058301500000000
    -0.005241500000000     0.058301500000000    -0.004189000000000
   2  16
     0.478889500000000     0.108524500000000     0.108524500000000
    -0.108541000000000    -0.150169500000000    -0.212788500000000
    -0.108541000000000    -0.212788500000000    -0.150169500000000
   2  17
    -0.150169500000000     0.108541000000000     0.212788500000000
    -0.108524500000000     0.478889500000000     0.108524500000000
     0.212788500000000    -0.108541000000000    -0.150169500000000
   2  18
    -0.150169500000000     0.108541000000000    -0.212788500000000
    -0.108524500000000     0.478889500000000    -0.108524500000000
    -0.212788500000000     0.108541000000000    -0.150169500000000
   2  19
    -0.004189000000000     0.005241500000000    -0.058301500000000
    -0.005245000000000     0.010476000000000     0.005245000000000
    -0.058301500000000    -0.005241500000000    -0.004189000000000
   2  20
    -0.004189000000000     0.005241500000000     0.058301500000000
    -0.005245000000000     0.010476000000000    -0.005245000000000
     0.058301500000000     0.005241500000000    -0.004189000000000
   2  21
    -0.150169500000000    -0.108541000000000    -0.212788500000000
     0.108524500000000     0.478889500000000     0.108524500000000
    -0.212788500000000    -0.108541000000000    -0.150169500000000
   2  22
    -0.150169500000000    -0.108541000000000     0.212788500000000
     0.108524500000000     0.478889500000000    -0.108524500000000
     0.212788500000000     0.108541000000000    -0.150169500000000
   2  23
    -0.004189000000000    -0.005241500000000     0.058301500000000
     0.005245000000000     0.010476000000000     0.005245000000000
     0.058301500000000    -0.005241500000000    -0.004189000000000
   2  24
    -0.004189000000000    -0.005241500000000    -0.058301500000000
     0.005245000000000     0.010476000000000    -0.005245000000000
    -0.058301500000000     0.005241500000000    -0.004189000000000
   2  25
    -0.150169500000000     0.212788500000000     0.108541000000000
     0.212788500000000    -0.150169500000000    -0.108541000000000
    -0.108524500000000     0.108524500000000     0.478889500000000
   2  26
    -0.150169500000000    -0.212788500000000     0.108541000000000
    -0.212788500000000    -0.150169500000000     0.108541000000000
    -0.108524500000000    -0.108524500000000     0.478889500000000
   2  27
    -0.150169500000000    -0.212788500000000    -0.108541000000000
    -0.212788500000000    -0.150169500000000    -0.108541000000000
     0.108524500000000     0.108524500000000     0.478889500000000
   2  28
    -0.150169500000000     0.212788500000000    -0.108541000000000
     0.212788500000000    -0.150169500000000     0.108541000000000
     0.108524500000000    -0.108524500000000     0.478889500000000
   2  29
    -0.004189000000000    -0.058301500000000     0.005241500000000
    -0.058301500000000    -0.004189000000000    -0.005241500000000
    -0.005245000000000     0.005245000000000     0.010476000000000
   2  30
    -0.004189000000000     0.058301500000000     0.005241500000000
     0.058301500000000    -0.004189000000000     0.005241500000000
    -0.005245000000000    -0.005245000000000     0.010476000000000
   2  31
    -0.004189000000000     0.058301500000000    -0.005241500000000
     0.058301500000000    -0.004189000000000    -0.005241500000000
     0.005245000000000     0.005245000000000     0.010476000000000
   2  32
    -0.004189000000000    -0.058301500000000    -0.005241500000000
    -0.058301500000000    -0.004189000000000     0.005241500000000
     0.005245000000000    -0.005245000000000     0.010476000000000
   2  33
    -0.195359500000000    -0.029931500000000    -0.029931500000000
    -0.029927000000000    -0.033808000000000    -0.034158000000000
    -0.029927000000000    -0.034158000000000    -0.033808000000000
   2  34
     0.026340000000000    -0.048446000000000    -0.048446000000000
    -0.048446000000000     0.026340000000000    -0.048446000000000
    -0.048446000000000    -0.048446000000000     0.026340000000000
   2  35
     0.042559500000000    -0.050182500000000    -0.042066000000000
    -0.050182500000000     0.042559500000000    -0.042066000000000
    -0.042066000000000    -0.042066000000000    -0.003555500000000
   2  36
    -0.033808000000000    -0.029927000000000    -0.034158000000000
    -0.029931500000000    -0.195359500000000    -0.029931500000000
    -0.034158000000000    -0.029927000000000    -0.033808000000000
   2  37
     0.042559500000000    -0.042066000000000    -0.050182500000000
    -0.042066000000000    -0.003555500000000    -0.042066000000000
    -0.050182500000000    -0.042066000000000     0.042559500000000
   2  38
    -0.033808000000000    -0.034158000000000    -0.029927000000000
    -0.034158000000000    -0.033808000000000    -0.029927000000000
    -0.029931500000000    -0.029931500000000    -0.195359500000000
   2  39
    -3.305448999999998    -2.071265999999999    -2.071265999999999
    -2.071265999999999    -3.305448999999998    -2.071265999999999
    -2.071265999999999    -2.071265999999999    -3.305448999999998
   2  40
    -0.003555500000000    -0.042066000000000    -0.042066000000000
    -0.042066000000000     0.042559500000000    -0.050182500000000
    -0.042066000000000    -0.050182500000000     0.042559500000000
   2  41
    -3.305448999999998     2.071265999999999     2.071265999999999
     2.071265999999999    -3.305448999999998    -2.071265999999999
     2.071265999999999    -2.071265999999999    -3.305448999999998
   2  42
    -0.003555500000000     0.042066000000000     0.042066000000000
     0.042066000000000     0.042559500000000    -0.050182500000000
     0.042066000000000    -0.050182500000000     0.042559500000000
   2  43
     0.042559500000000     0.042066000000000     0.050182500000000
     0.042066000000000    -0.003555500000000    -0.042066000000000
     0.050182500000000    -0.042066000000000     0.042559500000000
   2  44
    -0.033808000000000     0.034158000000000     0.029927000000000
     0.034158000000000    -0.033808000000000    -0.029927000000000
     0.029931500000000    -0.029931500000000    -0.195359500000000
   2  45
     0.042559500000000     0.050182500000000     0.042066000000000
     0.050182500000000     0.042559500000000    -0.042066000000000
     0.042066000000000    -0.042066000000000    -0.003555500000000
   2  46
    -0.033808000000000     0.029927000000000     0.034158000000000
     0.029931500000000    -0.195359500000000    -0.029931500000000
     0.034158000000000    -0.029927000000000    -0.033808000000000
   2  47
    -0.195359500000000     0.029931500000000     0.029931500000000
     0.029927000000000    -0.033808000000000    -0.034158000000000
     0.029927000000000    -0.034158000000000    -0.033808000000000
   2  48
     0.026340000000000     0.048446000000000     0.048446000000000
     0.048446000000000     0.026340000000000    -0.048446000000000
     0.048446000000000    -0.048446000000000     0.026340000000000
   2  49
    -0.033808000000000     0.034158000000000    -0.029927000000000
     0.034158000000000    -0.033808000000000     0.029927000000000
    -0.029931500000000     0.029931500000000    -0.195359500000000
   2  50
     0.042559500000000     0.042066000000000    -0.050182500000000
     0.042066000000000    -0.003555500000000     0.042066000000000
    -0.050182500000000     0.042066000000000     0.042559500000000
   2  51
    -0.003555500000000     0.042066000000000    -0.042066000000000
     0.042066000000000     0.042559500000000     0.050182500000000
    -0.042066000000000     0.050182500000000     0.042559500000000
   2  52
    -3.305448999999998     2.071265999999999    -2.071265999999999
     2.071265999999999    -3.305448999999998     2.071265999999999
    -2.071265999999999     2.071265999999999    -3.305448999999998
   2  53
     0.026340000000000     0.048446000000000    -0.048446000000000
     0.048446000000000     0.026340000000000     0.048446000000000
    -0.048446000000000     0.048446000000000     0.026340000000000
   2  54
    -0.195359500000000     0.029931500000000    -0.029931500000000
     0.029927000000000    -0.033808000000000     0.034158000000000
    -0.029927000000000     0.034158000000000    -0.033808000000000
   2  55
    -0.033808000000000     0.029927000000000    -0.034158000000000
     0.029931500000000    -0.195359500000000     0.029931500000000
    -0.034158000000000     0.029927000000000    -0.033808000000000
   2  56
     0.042559500000000     0.050182500000000    -0.042066000000000
     0.050182500000000     0.042559500000000     0.042066000000000
    -0.042066000000000     0.042066000000000    -0.003555500000000
   2  57
    -0.033808000000000    -0.029927000000000     0.034158000000000
    -0.029931500000000    -0.195359500000000     0.029931500000000
     0.034158000000000     0.029927000000000    -0.033808000000000
   2  58
     0.042559500000000    -0.050182500000000     0.042066000000000
    -0.050182500000000     0.042559500000000     0.042066000000000
     0.042066000000000     0.042066000000000    -0.003555500000000
   2  59
     0.026340000000000    -0.048446000000000     0.048446000000000
    -0.048446000000000     0.026340000000000     0.048446000000000
     0.048446000000000     0.048446000000000     0.026340000000000
   2  60
    -0.195359500000000    -0.029931500000000     0.029931500000000
    -0.029927000000000    -0.033808000000000     0.034158000000000
     0.029927000000000     0.034158000000000    -0.033808000000000
   2  61
    -0.003555500000000    -0.042066000000000     0.042066000000000
    -0.042066000000000     0.042559500000000     0.050182500000000
     0.042066000000000     0.050182500000000     0.042559500000000
   2  62
    -3.305448999999998    -2.071265999999999     2.071265999999999
    -2.071265999999999    -3.305448999999998     2.071265999999999
     2.071265999999999     2.071265999999999    -3.305448999999998
   2  63
    -0.033808000000000    -0.034158000000000     0.029927000000000
    -0.034158000000000    -0.033808000000000     0.029927000000000
     0.029931500000000     0.029931500000000    -0.195359500000000
   2  64
     0.042559500000000    -0.042066000000000     0.050182500000000
    -0.042066000000000    -0.003555500000000     0.042066000000000
     0.050182500000000     0.042066000000000     0.042559500000000
   3   1
    -0.061532000000000     0.000000000000000     0.000000000000000
    -0.000000000000000    -0.027894000000000     0.000000000000000
     0.000000000000000     0.000000000000000    -0.061532000000000
   3   2
    -0.053633000000000     0.000000000000000     0.000000000000000
    -0.000000000000000    -0.053633000000000     0.000000000000000
     0.000000000000000     0.000000000000000     0.281652000000000
   3   3
    13.136182999999997     0.000000000000000     0.000000000000000
     0.000000000000001    13.136182999999997     0.000000000000000
     0.000000000000000     0.000000000000000    13.136182999999997
   3   4
    -0.027894000000000     0.000000000000000     0.000000000000000
    -0.000000000000000    -0.061532000000000     0.000000000000000
     0.000000000000000     0.000000000000000    -0.061532000000000
   3   5
     0.281652000000000     0.000000000000000     0.000000000000000
     0.000000000000000    -0.053633000000000     0.000000000000000
     0.000000000000000     0.000000000000000    -0.053633000000000
   3   6
    -0.040120000000000     0.000000000000000     0.000000000000000
    -0.000000000000000    -0.040120000000000     0.000000000000000
     0.000000000000000     0.000000000000000    -0.040120000000000
   3   7
    -0.061532000000000     0.000000000000000     0.000000000000000
    -0.000000000000000    -0.061532000000000     0.000000000000000
     0.000000000000000     0.000000000000000    -0.027894000000000
   3   8
    -0.053633000000000     0.000000000000000     0.000000000000000
    -0.000000000000000     0.281652000000000     0.000000000000000
     0.000000000000000     0.000000000000000    -0.053633000000000
   3   9
     0.478889500000000    -0.108524500000000     0.108524500000000
     0.108541000000000    -0.150169500000000     0.212788500000000
    -0.108541000000000     0.212788500000000    -0.150169500000000
   3  10
     0.010476000000000    -0.005245000000000     0.005245000000000
     0.005241500000000    -0.004189000000000    -0.058301500000000
    -0.005241500000000    -0.058301500000000    -0.004189000000000
   3  11
     0.478889500000000    -0.108524500000000    -0.108524500000000
     0.108541000000000    -0.150169500000000    -0.212788500000000
     0.108541000000000    -0.212788500000000    -0.150169500000000
   3  12
     0.010476000000000    -0.005245000000000    -0.005245000000000
     0.005241500000000    -0.004189000000000     0.058301500000000
     0.005241500000000     0.058301500000000    -0.004189000000000
   3  13
     0.478889500000000     0.108524500000000     0.108524500000000
    -0.108541000000000    -0.150169500000000    -0.212788500000000
    -0.108541000000000    -0.212788500000000    -0.150169500000000
   3  14
     0.010476000000000     0.005245000000000     0.005245000000000
    -0.005241500000000    -0.004189000000000     0.058301500000000
    -0.005241500000000     0.058301500000000    -0.004189000000000
   3  15
     0.478889500000000     0.108524500000000    -0.108524500000000
    -0.108541000000000    -0.150169500000000     0.212788500000000