 vasp.5.3.3 18Dez12 (build Dec 28 2012 11:48:43) complex                        
  
 executed on             LinuxIFC date 2015.10.16  14:07:50
 running on    1 total cores
 distrk:  each k-point on    1 cores,    1 groups
 distr:  one band on NCORES_PER_BAND=   1 cores,    1 groups


--------------------------------------------------------------------------------------------------------


 INCAR:
 POTCAR:    PAW_PBE Si 05Jan2001                  
 POTCAR:    PAW_PBE Si 05Jan2001                  
   VRHFIN =Si: s2p2                                                             
   LEXCH  = PE                                                                  
   EATOM  =   103.0669 eV,    7.5752 Ry                                         
                                                                                
   TITEL  = PAW_PBE Si 05Jan2001                                                
   LULTRA =        F    use ultrasoft PP ?                                      
   IUNSCR =        1    unscreen: 0-lin 1-nonlin 2-no                           
   RPACOR =    1.500    partial core radius                                     
   POMASS =   28.085; ZVAL   =    4.000    mass and valenz                      
   RCORE  =    1.900    outmost cutoff radius                                   
   RWIGS  =    2.480; RWIGS  =    1.312    wigner-seitz radius (au A)           
   ENMAX  =  245.345; ENMIN  =  184.009 eV                                      
   ICORE  =        2    local potential                                         
   LCOR   =        T    correct aug charges                                     
   LPAW   =        T    paw PP                                                  
   EAUG   =  322.069                                                            
   DEXC   =    0.000                                                            
   RMAX   =    1.950    core radius for proj-oper                               
   RAUG   =    1.300    factor for augmentation sphere                          
   RDEP   =    1.993    radius for radial grids                                 
   RDEPT  =    1.837    core radius for aug-charge                              
                                                                                
   Atomic configuration                                                         
    6 entries                                                                   
     n  l   j            E        occ.                                          
     1  0  0.50     -1785.8828   2.0000                                         
     2  0  0.50      -139.4969   2.0000                                         
     2  1  1.50       -95.5546   6.0000                                         
     3  0  0.50       -10.8127   2.0000                                         
     3  1  0.50        -4.0811   2.0000                                         
     3  2  1.50        -4.0817   0.0000                                         
   Description                                                                  
     l       E           TYP  RCUT    TYP  RCUT                                 
     0    -10.8127223     23  1.900                                             
     0     -7.6451159     23  1.900                                             
     1     -4.0811372     23  1.900                                             
     1      2.4879257     23  1.900                                             
     2     -4.0817478      7  1.900                                             
  local pseudopotential read in
  partial core-charges read in
  partial kinetic energy density read in
  atomic valenz-charges read in
  non local Contribution for L=           0  read in
    real space projection operators read in
  non local Contribution for L=           0  read in
    real space projection operators read in
  non local Contribution for L=           1  read in
    real space projection operators read in
  non local Contribution for L=           1  read in
    real space projection operators read in
    PAW grid and wavefunctions read in
 
   number of l-projection  operators is LMAX  =           4
   number of lm-projection operators is LMMAX =           8
 

 ----------------------------------------------------------------------------- 
|                                                                             |
|  ADVICE TO THIS USER RUNNING 'VASP/VAMP'   (HEAR YOUR MASTER'S VOICE ...):  |
|                                                                             |
|      You enforced a specific xc-type in the INCAR file,                     |
|      a different type was found on the POTCAR file                          |
|          I HOPE YOU KNOW, WHAT YOU ARE  DOING                               |
|                                                                             |
 ----------------------------------------------------------------------------- 

  PAW_PBE Si 05Jan2001                  :
 energy of atom  1       EATOM= -103.0669
 kinetic energy error for atom=    0.0021 (will be added to EATOM!!)
 
 
 POSCAR:  Si                                     
  positions in direct lattice
  No initial velocities read in
 exchange correlation table for  LEXCH =       14
   RHO(1)=    0.500       N(1)  =     2000
   RHO(2)=  100.500       N(2)  =     4000
 


--------------------------------------------------------------------------------------------------------


 ion  position               nearest neighbor table
   1  0.875  0.875  0.875-   5 2.36   6 2.36   7 2.36   8 2.36
   2  0.875  0.375  0.375-   5 2.36   6 2.36   7 2.36   8 2.36
   3  0.375  0.875  0.375-   5 2.36   6 2.36   7 2.36   8 2.36
   4  0.375  0.375  0.875-   5 2.36   6 2.36   7 2.36   8 2.36
   5  0.125  0.125  0.125-   1 2.36   2 2.36   3 2.36   4 2.36
   6  0.125  0.625  0.625-   1 2.36   2 2.36   3 2.36   4 2.36
   7  0.625  0.125  0.625-   1 2.36   2 2.36   3 2.36   4 2.36
   8  0.625  0.625  0.125-   1 2.36   2 2.36   3 2.36   4 2.36
 
  LATTYP: Found a simple cubic cell.
 ALAT       =     5.4500000000
  
  Lattice vectors:
  
 A1 = (   5.4500000000,   0.0000000000,   0.0000000000)
 A2 = (   0.0000000000,   5.4500000000,   0.0000000000)
 A3 = (   0.0000000000,   0.0000000000,   5.4500000000)


Analysis of symmetry for initial positions (statically):
=====================================================================
 Subroutine PRICEL returns following result:
 
  LATTYP: Found a face centered cubic cell.
 ALAT       =     5.4500000000
  
  Lattice vectors:
  
 A1 = (   2.7250000000,   2.7250000000,   0.0000000000)
 A2 = (   2.7250000000,   0.0000000000,  -2.7250000000)
 A3 = (   0.0000000000,   2.7250000000,  -2.7250000000)
 
   4 primitive cells build up your supercell.
 

 Routine SETGRP: Setting up the symmetry group for a 
 simple cubic supercell.


 Subroutine GETGRP returns: Found 48 space group operations
 (whereof 12 operations were pure point group operations)
 out of a pool of 48 trial point group operations.


The static configuration has the point symmetry D_3d.
 The point group associated with its full space group is O_h .


Analysis of symmetry for dynamics (positions and initial velocities):
=====================================================================
 Subroutine PRICEL returns following result:
 
  LATTYP: Found a face centered cubic cell.
 ALAT       =     5.4500000000
  
  Lattice vectors:
  
 A1 = (   2.7250000000,   2.7250000000,   0.0000000000)
 A2 = (   2.7250000000,   0.0000000000,  -2.7250000000)
 A3 = (   0.0000000000,   2.7250000000,  -2.7250000000)
 
   4 primitive cells build up your supercell.
 

 Routine SETGRP: Setting up the symmetry group for a 
 simple cubic supercell.


 Subroutine GETGRP returns: Found 48 space group operations
 (whereof 12 operations were pure point group operations)
 out of a pool of 48 trial point group operations.


The dynamic configuration has the point symmetry D_3d.
 The point group associated with its full space group is O_h .


 irot  :   1
 --------------------------------------------------------------------
 isymop:   1   0   0
           0   1   0
           0   0   1

 gtrans:     0.0000000     0.0000000     0.0000000

 ptrans:     0.0000000     0.0000000     0.0000000
 rotmap:
 (   1->   1)  (   2->   2)  (   3->   3)  (   4->   4)  (   5->   5) 
 (   6->   6)  (   7->   7)  (   8->   8) 

 ptrans:     0.5000000     0.5000000     0.0000000
 rotmap:
 (   1->   4)  (   2->   3)  (   3->   2)  (   4->   1)  (   5->   8) 
 (   6->   7)  (   7->   6)  (   8->   5) 

 ptrans:     0.5000000     0.0000000     0.5000000
 rotmap:
 (   1->   3)  (   2->   4)  (   3->   1)  (   4->   2)  (   5->   7) 
 (   6->   8)  (   7->   5)  (   8->   6) 

 ptrans:     0.0000000     0.5000000     0.5000000
 rotmap:
 (   1->   2)  (   2->   1)  (   3->   4)  (   4->   3)  (   5->   6) 
 (   6->   5)  (   7->   8)  (   8->   7) 


 irot  :   2
 --------------------------------------------------------------------
 isymop:  -1   0   0
           0  -1   0
           0   0  -1

 gtrans:     0.0000000     0.0000000     0.0000000

 ptrans:     0.0000000     0.0000000     0.0000000
 rotmap:
 (   1->   5)  (   2->   6)  (   3->   7)  (   4->   8)  (   5->   1) 
 (   6->   2)  (   7->   3)  (   8->   4) 

 ptrans:     0.5000000     0.5000000     0.0000000
 rotmap:
 (   1->   8)  (   2->   7)  (   3->   6)  (   4->   5)  (   5->   4) 
 (   6->   3)  (   7->   2)  (   8->   1) 

 ptrans:     0.5000000     0.0000000     0.5000000
 rotmap:
 (   1->   7)  (   2->   8)  (   3->   5)  (   4->   6)  (   5->   3) 
 (   6->   4)  (   7->   1)  (   8->   2) 

 ptrans:     0.0000000     0.5000000     0.5000000
 rotmap:
 (   1->   6)  (   2->   5)  (   3->   8)  (   4->   7)  (   5->   2) 
 (   6->   1)  (   7->   4)  (   8->   3) 


 irot  :   3
 --------------------------------------------------------------------
 isymop:   0   0   1
           1   0   0
           0   1   0

 gtrans:     0.0000000     0.0000000     0.0000000

 ptrans:     0.0000000     0.0000000     0.0000000
 rotmap:
 (   1->   1)  (   2->   3)  (   3->   4)  (   4->   2)  (   5->   5) 
 (   6->   7)  (   7->   8)  (   8->   6) 

 ptrans:     0.5000000     0.5000000     0.0000000
 rotmap:
 (   1->   4)  (   2->   2)  (   3->   1)  (   4->   3)  (   5->   8) 
 (   6->   6)  (   7->   5)  (   8->   7) 

 ptrans:     0.5000000     0.0000000     0.5000000
 rotmap:
 (   1->   3)  (   2->   1)  (   3->   2)  (   4->   4)  (   5->   7) 
 (   6->   5)  (   7->   6)  (   8->   8) 

 ptrans:     0.0000000     0.5000000     0.5000000
 rotmap:
 (   1->   2)  (   2->   4)  (   3->   3)  (   4->   1)  (   5->   6) 
 (   6->   8)  (   7->   7)  (   8->   5) 


 irot  :   4
 --------------------------------------------------------------------
 isymop:   0   0  -1
          -1   0   0
           0  -1   0

 gtrans:     0.0000000     0.0000000     0.0000000

 ptrans:     0.0000000     0.0000000     0.0000000
 rotmap:
 (   1->   5)  (   2->   7)  (   3->   8)  (   4->   6)  (   5->   1) 
 (   6->   3)  (   7->   4)  (   8->   2) 

 ptrans:     0.5000000     0.5000000     0.0000000
 rotmap:
 (   1->   8)  (   2->   6)  (   3->   5)  (   4->   7)  (   5->   4) 
 (   6->   2)  (   7->   1)  (   8->   3) 

 ptrans:     0.5000000     0.0000000     0.5000000
 rotmap:
 (   1->   7)  (   2->   5)  (   3->   6)  (   4->   8)  (   5->   3) 
 (   6->   1)  (   7->   2)  (   8->   4) 

 ptrans:     0.0000000     0.5000000     0.5000000
 rotmap:
 (   1->   6)  (   2->   8)  (   3->   7)  (   4->   5)  (   5->   2) 
 (   6->   4)  (   7->   3)  (   8->   1) 


 irot  :   5
 --------------------------------------------------------------------
 isymop:   0   1   0
           0   0   1
           1   0   0

 gtrans:     0.0000000     0.0000000     0.0000000

 ptrans:     0.0000000     0.0000000     0.0000000
 rotmap:
 (   1->   1)  (   2->   4)  (   3->   2)  (   4->   3)  (   5->   5) 
 (   6->   8)  (   7->   6)  (   8->   7) 

 ptrans:     0.5000000     0.5000000     0.0000000
 rotmap:
 (   1->   4)  (   2->   1)  (   3->   3)  (   4->   2)  (   5->   8) 
 (   6->   5)  (   7->   7)  (   8->   6) 

 ptrans:     0.5000000     0.0000000     0.5000000
 rotmap:
 (   1->   3)  (   2->   2)  (   3->   4)  (   4->   1)  (   5->   7) 
 (   6->   6)  (   7->   8)  (   8->   5) 

 ptrans:     0.0000000     0.5000000     0.5000000
 rotmap:
 (   1->   2)  (   2->   3)  (   3->   1)  (   4->   4)  (   5->   6) 
 (   6->   7)  (   7->   5)  (   8->   8) 


 irot  :   6
 --------------------------------------------------------------------
 isymop:   0  -1   0
           0   0  -1
          -1   0   0

 gtrans:     0.0000000     0.0000000     0.0000000

 ptrans:     0.0000000     0.0000000     0.0000000
 rotmap:
 (   1->   5)  (   2->   8)  (   3->   6)  (   4->   7)  (   5->   1) 
 (   6->   4)  (   7->   2)  (   8->   3) 

 ptrans:     0.5000000     0.5000000     0.0000000
 rotmap:
 (   1->   8)  (   2->   5)  (   3->   7)  (   4->   6)  (   5->   4) 
 (   6->   1)  (   7->   3)  (   8->   2) 

 ptrans:     0.5000000     0.0000000     0.5000000
 rotmap:
 (   1->   7)  (   2->   6)  (   3->   8)  (   4->   5)  (   5->   3) 
 (   6->   2)  (   7->   4)  (   8->   1) 

 ptrans:     0.0000000     0.5000000     0.5000000
 rotmap:
 (   1->   6)  (   2->   7)  (   3->   5)  (   4->   8)  (   5->   2) 
 (   6->   3)  (   7->   1)  (   8->   4) 


 irot  :   7
 --------------------------------------------------------------------
 isymop:  -1   0   0
           0   0  -1
           0  -1   0

 gtrans:     0.0000000     0.0000000     0.0000000

 ptrans:     0.0000000     0.0000000     0.0000000
 rotmap:
 (   1->   5)  (   2->   6)  (   3->   8)  (   4->   7)  (   5->   1) 
 (   6->   2)  (   7->   4)  (   8->   3) 

 ptrans:     0.5000000     0.5000000     0.0000000
 rotmap:
 (   1->   8)  (   2->   7)  (   3->   5)  (   4->   6)  (   5->   4) 
 (   6->   3)  (   7->   1)  (   8->   2) 

 ptrans:     0.5000000     0.0000000     0.5000000
 rotmap:
 (   1->   7)  (   2->   8)  (   3->   6)  (   4->   5)  (   5->   3) 
 (   6->   4)  (   7->   2)  (   8->   1) 

 ptrans:     0.0000000     0.5000000     0.5000000
 rotmap:
 (   1->   6)  (   2->   5)  (   3->   7)  (   4->   8)  (   5->   2) 
 (   6->   1)  (   7->   3)  (   8->   4) 


 irot  :   8
 --------------------------------------------------------------------
 isymop:   1   0   0
           0   0   1
           0   1   0

 gtrans:     0.0000000     0.0000000     0.0000000

 ptrans:     0.0000000     0.0000000     0.0000000
 rotmap:
 (   1->   1)  (   2->   2)  (   3->   4)  (   4->   3)  (   5->   5) 
 (   6->   6)  (   7->   8)  (   8->   7) 

 ptrans:     0.5000000     0.5000000     0.0000000
 rotmap:
 (   1->   4)  (   2->   3)  (   3->   1)  (   4->   2)  (   5->   8) 
 (   6->   7)  (   7->   5)  (   8->   6) 

 ptrans:     0.5000000     0.0000000     0.5000000
 rotmap:
 (   1->   3)  (   2->   4)  (   3->   2)  (   4->   1)  (   5->   7) 
 (   6->   8)  (   7->   6)  (   8->   5) 

 ptrans:     0.0000000     0.5000000     0.5000000
 rotmap:
 (   1->   2)  (   2->   1)  (   3->   3)  (   4->   4)  (   5->   6) 
 (   6->   5)  (   7->   7)  (   8->   8) 


 irot  :   9
 --------------------------------------------------------------------
 isymop:   0  -1   0
          -1   0   0
           0   0  -1

 gtrans:     0.0000000     0.0000000     0.0000000

 ptrans:     0.0000000     0.0000000     0.0000000
 rotmap:
 (   1->   5)  (   2->   7)  (   3->   6)  (   4->   8)  (   5->   1) 
 (   6->   3)  (   7->   2)  (   8->   4) 

 ptrans:     0.5000000     0.5000000     0.0000000
 rotmap:
 (   1->   8)  (   2->   6)  (   3->   7)  (   4->   5)  (   5->   4) 
 (   6->   2)  (   7->   3)  (   8->   1) 

 ptrans:     0.5000000     0.0000000     0.5000000
 rotmap:
 (   1->   7)  (   2->   5)  (   3->   8)  (   4->   6)  (   5->   3) 
 (   6->   1)  (   7->   4)  (   8->   2) 

 ptrans:     0.0000000     0.5000000     0.5000000
 rotmap:
 (   1->   6)  (   2->   8)  (   3->   5)  (   4->   7)  (   5->   2) 
 (   6->   4)  (   7->   1)  (   8->   3) 


 irot  :  10
 --------------------------------------------------------------------
 isymop:   0   1   0
           1   0   0
           0   0   1

 gtrans:     0.0000000     0.0000000     0.0000000

 ptrans:     0.0000000     0.0000000     0.0000000
 rotmap:
 (   1->   1)  (   2->   3)  (   3->   2)  (   4->   4)  (   5->   5) 
 (   6->   7)  (   7->   6)  (   8->   8) 

 ptrans:     0.5000000     0.5000000     0.0000000
 rotmap:
 (   1->   4)  (   2->   2)  (   3->   3)  (   4->   1)  (   5->   8) 
 (   6->   6)  (   7->   7)  (   8->   5) 

 ptrans:     0.5000000     0.0000000     0.5000000
 rotmap:
 (   1->   3)  (   2->   1)  (   3->   4)  (   4->   2)  (   5->   7) 
 (   6->   5)  (   7->   8)  (   8->   6) 

 ptrans:     0.0000000     0.5000000     0.5000000
 rotmap:
 (   1->   2)  (   2->   4)  (   3->   1)  (   4->   3)  (   5->   6) 
 (   6->   8)  (   7->   5)  (   8->   7) 


 irot  :  11
 --------------------------------------------------------------------
 isymop:   0   0  -1
           0  -1   0
          -1   0   0

 gtrans:     0.0000000     0.0000000     0.0000000

 ptrans:     0.0000000     0.0000000     0.0000000
 rotmap:
 (   1->   5)  (   2->   8)  (   3->   7)  (   4->   6)  (   5->   1) 
 (   6->   4)  (   7->   3)  (   8->   2) 

 ptrans:     0.5000000     0.5000000     0.0000000
 rotmap:
 (   1->   8)  (   2->   5)  (   3->   6)  (   4->   7)  (   5->   4) 
 (   6->   1)  (   7->   2)  (   8->   3) 

 ptrans:     0.5000000     0.0000000     0.5000000
 rotmap:
 (   1->   7)  (   2->   6)  (   3->   5)  (   4->   8)  (   5->   3) 
 (   6->   2)  (   7->   1)  (   8->   4) 

 ptrans:     0.0000000     0.5000000     0.5000000
 rotmap:
 (   1->   6)  (   2->   7)  (   3->   8)  (   4->   5)  (   5->   2) 
 (   6->   3)  (   7->   4)  (   8->   1) 


 irot  :  12
 --------------------------------------------------------------------
 isymop:   0   0   1
           0   1   0
           1   0   0

 gtrans:     0.0000000     0.0000000     0.0000000

 ptrans:     0.0000000     0.0000000     0.0000000
 rotmap:
 (   1->   1)  (   2->   4)  (   3->   3)  (   4->   2)  (   5->   5) 
 (   6->   8)  (   7->   7)  (   8->   6) 

 ptrans:     0.5000000     0.5000000     0.0000000
 rotmap:
 (   1->   4)  (   2->   1)  (   3->   2)  (   4->   3)  (   5->   8) 
 (   6->   5)  (   7->   6)  (   8->   7) 

 ptrans:     0.5000000     0.0000000     0.5000000
 rotmap:
 (   1->   3)  (   2->   2)  (   3->   1)  (   4->   4)  (   5->   7) 
 (   6->   6)  (   7->   5)  (   8->   8) 

 ptrans:     0.0000000     0.5000000     0.5000000
 rotmap:
 (   1->   2)  (   2->   3)  (   3->   4)  (   4->   1)  (   5->   6) 
 (   6->   7)  (   7->   8)  (   8->   5) 


 irot  :  13
 --------------------------------------------------------------------
 isymop:   0  -1   0
           1   0   0
           0   0   1

 gtrans:     0.5000000     0.2500000    -0.2500000

 ptrans:     0.0000000     0.0000000     0.0000000
 rotmap:
 (   1->   7)  (   2->   5)  (   3->   8)  (   4->   6)  (   5->   4) 
 (   6->   2)  (   7->   3)  (   8->   1) 

 ptrans:     0.5000000     0.5000000     0.0000000
 rotmap:
 (   1->   6)  (   2->   8)  (   3->   5)  (   4->   7)  (   5->   1) 
 (   6->   3)  (   7->   2)  (   8->   4) 

 ptrans:     0.5000000     0.0000000     0.5000000
 rotmap:
 (   1->   5)  (   2->   7)  (   3->   6)  (   4->   8)  (   5->   2) 
 (   6->   4)  (   7->   1)  (   8->   3) 

 ptrans:     0.0000000     0.5000000     0.5000000
 rotmap:
 (   1->   8)  (   2->   6)  (   3->   7)  (   4->   5)  (   5->   3) 
 (   6->   1)  (   7->   4)  (   8->   2) 


 irot  :  14
 --------------------------------------------------------------------
 isymop:   0   1   0
          -1   0   0
           0   0  -1

 gtrans:     0.5000000     0.2500000    -0.2500000

 ptrans:     0.0000000     0.0000000     0.0000000
 rotmap:
 (   1->   4)  (   2->   2)  (   3->   3)  (   4->   1)  (   5->   7) 
 (   6->   5)  (   7->   8)  (   8->   6) 

 ptrans:     0.5000000     0.5000000     0.0000000
 rotmap:
 (   1->   1)  (   2->   3)  (   3->   2)  (   4->   4)  (   5->   6) 
 (   6->   8)  (   7->   5)  (   8->   7) 

 ptrans:     0.5000000     0.0000000     0.5000000
 rotmap:
 (   1->   2)  (   2->   4)  (   3->   1)  (   4->   3)  (   5->   5) 
 (   6->   7)  (   7->   6)  (   8->   8) 

 ptrans:     0.0000000     0.5000000     0.5000000
 rotmap:
 (   1->   3)  (   2->   1)  (   3->   4)  (   4->   2)  (   5->   8) 
 (   6->   6)  (   7->   7)  (   8->   5) 


 irot  :  15
 --------------------------------------------------------------------
 isymop:  -1   0   0
           0   0   1
           0   1   0

 gtrans:     0.5000000     0.2500000    -0.2500000

 ptrans:     0.0000000     0.0000000     0.0000000
 rotmap:
 (   1->   7)  (   2->   8)  (   3->   6)  (   4->   5)  (   5->   4) 
 (   6->   3)  (   7->   1)  (   8->   2) 

 ptrans:     0.5000000     0.5000000     0.0000000
 rotmap:
 (   1->   6)  (   2->   5)  (   3->   7)  (   4->   8)  (   5->   1) 
 (   6->   2)  (   7->   4)  (   8->   3) 

 ptrans:     0.5000000     0.0000000     0.5000000
 rotmap:
 (   1->   5)  (   2->   6)  (   3->   8)  (   4->   7)  (   5->   2) 
 (   6->   1)  (   7->   3)  (   8->   4) 

 ptrans:     0.0000000     0.5000000     0.5000000
 rotmap:
 (   1->   8)  (   2->   7)  (   3->   5)  (   4->   6)  (   5->   3) 
 (   6->   4)  (   7->   2)  (   8->   1) 


 irot  :  16
 --------------------------------------------------------------------
 isymop:   1   0   0
           0   0  -1
           0  -1   0

 gtrans:     0.5000000     0.2500000    -0.2500000

 ptrans:     0.0000000     0.0000000     0.0000000
 rotmap:
 (   1->   4)  (   2->   3)  (   3->   1)  (   4->   2)  (   5->   7) 
 (   6->   8)  (   7->   6)  (   8->   5) 

 ptrans:     0.5000000     0.5000000     0.0000000
 rotmap:
 (   1->   1)  (   2->   2)  (   3->   4)  (   4->   3)  (   5->   6) 
 (   6->   5)  (   7->   7)  (   8->   8) 

 ptrans:     0.5000000     0.0000000     0.5000000
 rotmap:
 (   1->   2)  (   2->   1)  (   3->   3)  (   4->   4)  (   5->   5) 
 (   6->   6)  (   7->   8)  (   8->   7) 

 ptrans:     0.0000000     0.5000000     0.5000000
 rotmap:
 (   1->   3)  (   2->   4)  (   3->   2)  (   4->   1)  (   5->   8) 
 (   6->   7)  (   7->   5)  (   8->   6) 


 irot  :  17
 --------------------------------------------------------------------
 isymop:   0   0  -1
           0   1   0
           1   0   0

 gtrans:     0.5000000     0.2500000    -0.2500000

 ptrans:     0.0000000     0.0000000     0.0000000
 rotmap:
 (   1->   7)  (   2->   6)  (   3->   5)  (   4->   8)  (   5->   4) 
 (   6->   1)  (   7->   2)  (   8->   3) 

 ptrans:     0.5000000     0.5000000     0.0000000
 rotmap:
 (   1->   6)  (   2->   7)  (   3->   8)  (   4->   5)  (   5->   1) 
 (   6->   4)  (   7->   3)  (   8->   2) 

 ptrans:     0.5000000     0.0000000     0.5000000
 rotmap:
 (   1->   5)  (   2->   8)  (   3->   7)  (   4->   6)  (   5->   2) 
 (   6->   3)  (   7->   4)  (   8->   1) 

 ptrans:     0.0000000     0.5000000     0.5000000
 rotmap:
 (   1->   8)  (   2->   5)  (   3->   6)  (   4->   7)  (   5->   3) 
 (   6->   2)  (   7->   1)  (   8->   4) 


 irot  :  18
 --------------------------------------------------------------------
 isymop:   0   0   1
           0  -1   0
          -1   0   0

 gtrans:     0.5000000     0.2500000    -0.2500000

 ptrans:     0.0000000     0.0000000     0.0000000
 rotmap:
 (   1->   4)  (   2->   1)  (   3->   2)  (   4->   3)  (   5->   7) 
 (   6->   6)  (   7->   5)  (   8->   8) 

 ptrans:     0.5000000     0.5000000     0.0000000
 rotmap:
 (   1->   1)  (   2->   4)  (   3->   3)  (   4->   2)  (   5->   6) 
 (   6->   7)  (   7->   8)  (   8->   5) 

 ptrans:     0.5000000     0.0000000     0.5000000
 rotmap:
 (   1->   2)  (   2->   3)  (   3->   4)  (   4->   1)  (   5->   5) 
 (   6->   8)  (   7->   7)  (   8->   6) 

 ptrans:     0.0000000     0.5000000     0.5000000
 rotmap:
 (   1->   3)  (   2->   2)  (   3->   1)  (   4->   4)  (   5->   8) 
 (   6->   5)  (   7->   6)  (   8->   7) 


 irot  :  19
 --------------------------------------------------------------------
 isymop:  -1   0   0
           0  -1   0
           0   0   1

 gtrans:     0.2500000     0.2500000     0.0000000

 ptrans:     0.0000000     0.0000000     0.0000000
 rotmap:
 (   1->   4)  (   2->   3)  (   3->   2)  (   4->   1)  (   5->   5) 
 (   6->   6)  (   7->   7)  (   8->   8) 

 ptrans:     0.5000000     0.5000000     0.0000000
 rotmap:
 (   1->   1)  (   2->   2)  (   3->   3)  (   4->   4)  (   5->   8) 
 (   6->   7)  (   7->   6)  (   8->   5) 

 ptrans:     0.5000000     0.0000000     0.5000000
 rotmap:
 (   1->   2)  (   2->   1)  (   3->   4)  (   4->   3)  (   5->   7) 
 (   6->   8)  (   7->   5)  (   8->   6) 

 ptrans:     0.0000000     0.5000000     0.5000000
 rotmap:
 (   1->   3)  (   2->   4)  (   3->   1)  (   4->   2)  (   5->   6) 
 (   6->   5)  (   7->   8)  (   8->   7) 


 irot  :  20
 --------------------------------------------------------------------
 isymop:   1   0   0
           0   1   0
           0   0  -1

 gtrans:     0.2500000     0.2500000     0.0000000

 ptrans:     0.0000000     0.0000000     0.0000000
 rotmap:
 (   1->   5)  (   2->   6)  (   3->   7)  (   4->   8)  (   5->   4) 
 (   6->   3)  (   7->   2)  (   8->   1) 

 ptrans:     0.5000000     0.5000000     0.0000000
 rotmap:
 (   1->   8)  (   2->   7)  (   3->   6)  (   4->   5)  (   5->   1) 
 (   6->   2)  (   7->   3)  (   8->   4) 

 ptrans:     0.5000000     0.0000000     0.5000000
 rotmap:
 (   1->   7)  (   2->   8)  (   3->   5)  (   4->   6)  (   5->   2) 
 (   6->   1)  (   7->   4)  (   8->   3) 

 ptrans:     0.0000000     0.5000000     0.5000000
 rotmap:
 (   1->   6)  (   2->   5)  (   3->   8)  (   4->   7)  (   5->   3) 
 (   6->   4)  (   7->   1)  (   8->   2) 


 irot  :  21
 --------------------------------------------------------------------
 isymop:   0   0  -1
          -1   0   0
           0   1   0

 gtrans:     0.2500000     0.2500000     0.0000000

 ptrans:     0.0000000     0.0000000     0.0000000
 rotmap:
 (   1->   4)  (   2->   2)  (   3->   1)  (   4->   3)  (   5->   5) 
 (   6->   7)  (   7->   8)  (   8->   6) 

 ptrans:     0.5000000     0.5000000     0.0000000
 rotmap:
 (   1->   1)  (   2->   3)  (   3->   4)  (   4->   2)  (   5->   8) 
 (   6->   6)  (   7->   5)  (   8->   7) 

 ptrans:     0.5000000     0.0000000     0.5000000
 rotmap:
 (   1->   2)  (   2->   4)  (   3->   3)  (   4->   1)  (   5->   7) 
 (   6->   5)  (   7->   6)  (   8->   8) 

 ptrans:     0.0000000     0.5000000     0.5000000
 rotmap:
 (   1->   3)  (   2->   1)  (   3->   2)  (   4->   4)  (   5->   6) 
 (   6->   8)  (   7->   7)  (   8->   5) 


 irot  :  22
 --------------------------------------------------------------------
 isymop:   0   0   1
           1   0   0
           0  -1   0

 gtrans:     0.2500000     0.2500000     0.0000000

 ptrans:     0.0000000     0.0000000     0.0000000
 rotmap:
 (   1->   5)  (   2->   7)  (   3->   8)  (   4->   6)  (   5->   4) 
 (   6->   2)  (   7->   1)  (   8->   3) 

 ptrans:     0.5000000     0.5000000     0.0000000
 rotmap:
 (   1->   8)  (   2->   6)  (   3->   5)  (   4->   7)  (   5->   1) 
 (   6->   3)  (   7->   4)  (   8->   2) 

 ptrans:     0.5000000     0.0000000     0.5000000
 rotmap:
 (   1->   7)  (   2->   5)  (   3->   6)  (   4->   8)  (   5->   2) 
 (   6->   4)  (   7->   3)  (   8->   1) 

 ptrans:     0.0000000     0.5000000     0.5000000
 rotmap:
 (   1->   6)  (   2->   8)  (   3->   7)  (   4->   5)  (   5->   3) 
 (   6->   1)  (   7->   2)  (   8->   4) 


 irot  :  23
 --------------------------------------------------------------------
 isymop:   0  -1   0
           0   0  -1
           1   0   0

 gtrans:     0.2500000     0.2500000     0.0000000

 ptrans:     0.0000000     0.0000000     0.0000000
 rotmap:
 (   1->   4)  (   2->   1)  (   3->   3)  (   4->   2)  (   5->   5) 
 (   6->   8)  (   7->   6)  (   8->   7) 

 ptrans:     0.5000000     0.5000000     0.0000000
 rotmap:
 (   1->   1)  (   2->   4)  (   3->   2)  (   4->   3)  (   5->   8) 
 (   6->   5)  (   7->   7)  (   8->   6) 

 ptrans:     0.5000000     0.0000000     0.5000000
 rotmap:
 (   1->   2)  (   2->   3)  (   3->   1)  (   4->   4)  (   5->   7) 
 (   6->   6)  (   7->   8)  (   8->   5) 

 ptrans:     0.0000000     0.5000000     0.5000000
 rotmap:
 (   1->   3)  (   2->   2)  (   3->   4)  (   4->   1)  (   5->   6) 
 (   6->   7)  (   7->   5)  (   8->   8) 


 irot  :  24
 --------------------------------------------------------------------
 isymop:   0   1   0
           0   0   1
          -1   0   0

 gtrans:     0.2500000     0.2500000     0.0000000

 ptrans:     0.0000000     0.0000000     0.0000000
 rotmap:
 (   1->   5)  (   2->   8)  (   3->   6)  (   4->   7)  (   5->   4) 
 (   6->   1)  (   7->   3)  (   8->   2) 

 ptrans:     0.5000000     0.5000000     0.0000000
 rotmap:
 (   1->   8)  (   2->   5)  (   3->   7)  (   4->   6)  (   5->   1) 
 (   6->   4)  (   7->   2)  (   8->   3) 

 ptrans:     0.5000000     0.0000000     0.5000000
 rotmap:
 (   1->   7)  (   2->   6)  (   3->   8)  (   4->   5)  (   5->   2) 
 (   6->   3)  (   7->   1)  (   8->   4) 

 ptrans:     0.0000000     0.5000000     0.5000000
 rotmap:
 (   1->   6)  (   2->   7)  (   3->   5)  (   4->   8)  (   5->   3) 
 (   6->   2)  (   7->   4)  (   8->   1) 


 irot  :  25
 --------------------------------------------------------------------
 isymop:   0   1   0
          -1   0   0
           0   0   1

 gtrans:     0.2500000     0.5000000    -0.2500000

 ptrans:     0.0000000     0.0000000     0.0000000
 rotmap:
 (   1->   6)  (   2->   8)  (   3->   5)  (   4->   7)  (   5->   4) 
 (   6->   2)  (   7->   3)  (   8->   1) 

 ptrans:     0.5000000     0.5000000     0.0000000
 rotmap:
 (   1->   7)  (   2->   5)  (   3->   8)  (   4->   6)  (   5->   1) 
 (   6->   3)  (   7->   2)  (   8->   4) 

 ptrans:     0.5000000     0.0000000     0.5000000
 rotmap:
 (   1->   8)  (   2->   6)  (   3->   7)  (   4->   5)  (   5->   2) 
 (   6->   4)  (   7->   1)  (   8->   3) 

 ptrans:     0.0000000     0.5000000     0.5000000
 rotmap:
 (   1->   5)  (   2->   7)  (   3->   6)  (   4->   8)  (   5->   3) 
 (   6->   1)  (   7->   4)  (   8->   2) 


 irot  :  26
 --------------------------------------------------------------------
 isymop:   0  -1   0
           1   0   0
           0   0  -1

 gtrans:     0.2500000     0.5000000    -0.2500000

 ptrans:     0.0000000     0.0000000     0.0000000
 rotmap:
 (   1->   4)  (   2->   2)  (   3->   3)  (   4->   1)  (   5->   6) 
 (   6->   8)  (   7->   5)  (   8->   7) 

 ptrans:     0.5000000     0.5000000     0.0000000
 rotmap:
 (   1->   1)  (   2->   3)  (   3->   2)  (   4->   4)  (   5->   7) 
 (   6->   5)  (   7->   8)  (   8->   6) 

 ptrans:     0.5000000     0.0000000     0.5000000
 rotmap:
 (   1->   2)  (   2->   4)  (   3->   1)  (   4->   3)  (   5->   8) 
 (   6->   6)  (   7->   7)  (   8->   5) 

 ptrans:     0.0000000     0.5000000     0.5000000
 rotmap:
 (   1->   3)  (   2->   1)  (   3->   4)  (   4->   2)  (   5->   5) 
 (   6->   7)  (   7->   6)  (   8->   8) 


 irot  :  27
 --------------------------------------------------------------------
 isymop:   1   0   0
           0   0  -1
           0   1   0

 gtrans:     0.2500000     0.5000000    -0.2500000

 ptrans:     0.0000000     0.0000000     0.0000000
 rotmap:
 (   1->   6)  (   2->   5)  (   3->   7)  (   4->   8)  (   5->   4) 
 (   6->   3)  (   7->   1)  (   8->   2) 

 ptrans:     0.5000000     0.5000000     0.0000000
 rotmap:
 (   1->   7)  (   2->   8)  (   3->   6)  (   4->   5)  (   5->   1) 
 (   6->   2)  (   7->   4)  (   8->   3) 

 ptrans:     0.5000000     0.0000000     0.5000000
 rotmap:
 (   1->   8)  (   2->   7)  (   3->   5)  (   4->   6)  (   5->   2) 
 (   6->   1)  (   7->   3)  (   8->   4) 

 ptrans:     0.0000000     0.5000000     0.5000000
 rotmap:
 (   1->   5)  (   2->   6)  (   3->   8)  (   4->   7)  (   5->   3) 
 (   6->   4)  (   7->   2)  (   8->   1) 


 irot  :  28
 --------------------------------------------------------------------
 isymop:  -1   0   0
           0   0   1
           0  -1   0

 gtrans:     0.2500000     0.5000000    -0.2500000

 ptrans:     0.0000000     0.0000000     0.0000000
 rotmap:
 (   1->   4)  (   2->   3)  (   3->   1)  (   4->   2)  (   5->   6) 
 (   6->   5)  (   7->   7)  (   8->   8) 

 ptrans:     0.5000000     0.5000000     0.0000000
 rotmap:
 (   1->   1)  (   2->   2)  (   3->   4)  (   4->   3)  (   5->   7) 
 (   6->   8)  (   7->   6)  (   8->   5) 

 ptrans:     0.5000000     0.0000000     0.5000000
 rotmap:
 (   1->   2)  (   2->   1)  (   3->   3)  (   4->   4)  (   5->   8) 
 (   6->   7)  (   7->   5)  (   8->   6) 

 ptrans:     0.0000000     0.5000000     0.5000000
 rotmap:
 (   1->   3)  (   2->   4)  (   3->   2)  (   4->   1)  (   5->   5) 
 (   6->   6)  (   7->   8)  (   8->   7) 


 irot  :  29
 --------------------------------------------------------------------
 isymop:   0   0   1
           0  -1   0
           1   0   0

 gtrans:     0.2500000     0.5000000    -0.2500000

 ptrans:     0.0000000     0.0000000     0.0000000
 rotmap:
 (   1->   6)  (   2->   7)  (   3->   8)  (   4->   5)  (   5->   4) 
 (   6->   1)  (   7->   2)  (   8->   3) 

 ptrans:     0.5000000     0.5000000     0.0000000
 rotmap:
 (   1->   7)  (   2->   6)  (   3->   5)  (   4->   8)  (   5->   1) 
 (   6->   4)  (   7->   3)  (   8->   2) 

 ptrans:     0.5000000     0.0000000     0.5000000
 rotmap:
 (   1->   8)  (   2->   5)  (   3->   6)  (   4->   7)  (   5->   2) 
 (   6->   3)  (   7->   4)  (   8->   1) 

 ptrans:     0.0000000     0.5000000     0.5000000
 rotmap:
 (   1->   5)  (   2->   8)  (   3->   7)  (   4->   6)  (   5->   3) 
 (   6->   2)  (   7->   1)  (   8->   4) 


 irot  :  30
 --------------------------------------------------------------------
 isymop:   0   0  -1
           0   1   0
          -1   0   0

 gtrans:     0.2500000     0.5000000    -0.2500000

 ptrans:     0.0000000     0.0000000     0.0000000
 rotmap:
 (   1->   4)  (   2->   1)  (   3->   2)  (   4->   3)  (   5->   6) 
 (   6->   7)  (   7->   8)  (   8->   5) 

 ptrans:     0.5000000     0.5000000     0.0000000
 rotmap:
 (   1->   1)  (   2->   4)  (   3->   3)  (   4->   2)  (   5->   7) 
 (   6->   6)  (   7->   5)  (   8->   8) 

 ptrans:     0.5000000     0.0000000     0.5000000
 rotmap:
 (   1->   2)  (   2->   3)  (   3->   4)  (   4->   1)  (   5->   8) 
 (   6->   5)  (   7->   6)  (   8->   7) 

 ptrans:     0.0000000     0.5000000     0.5000000
 rotmap:
 (   1->   3)  (   2->   2)  (   3->   1)  (   4->   4)  (   5->   5) 
 (   6->   8)  (   7->   7)  (   8->   6) 


 irot  :  31
 --------------------------------------------------------------------
 isymop:   0   0   1
          -1   0   0
           0  -1   0

 gtrans:     0.5000000     0.2500000    -0.2500000

 ptrans:     0.0000000     0.0000000     0.0000000
 rotmap:
 (   1->   4)  (   2->   2)  (   3->   1)  (   4->   3)  (   5->   7) 
 (   6->   5)  (   7->   6)  (   8->   8) 

 ptrans:     0.5000000     0.5000000     0.0000000
 rotmap:
 (   1->   1)  (   2->   3)  (   3->   4)  (   4->   2)  (   5->   6) 
 (   6->   8)  (   7->   7)  (   8->   5) 

 ptrans:     0.5000000     0.0000000     0.5000000
 rotmap:
 (   1->   2)  (   2->   4)  (   3->   3)  (   4->   1)  (   5->   5) 
 (   6->   7)  (   7->   8)  (   8->   6) 

 ptrans:     0.0000000     0.5000000     0.5000000
 rotmap:
 (   1->   3)  (   2->   1)  (   3->   2)  (   4->   4)  (   5->   8) 
 (   6->   6)  (   7->   5)  (   8->   7) 


 irot  :  32
 --------------------------------------------------------------------
 isymop:   0   0  -1
           1   0   0
           0   1   0

 gtrans:     0.5000000     0.2500000    -0.2500000

 ptrans:     0.0000000     0.0000000     0.0000000
 rotmap:
 (   1->   7)  (   2->   5)  (   3->   6)  (   4->   8)  (   5->   4) 
 (   6->   2)  (   7->   1)  (   8->   3) 

 ptrans:     0.5000000     0.5000000     0.0000000
 rotmap:
 (   1->   6)  (   2->   8)  (   3->   7)  (   4->   5)  (   5->   1) 
 (   6->   3)  (   7->   4)  (   8->   2) 

 ptrans:     0.5000000     0.0000000     0.5000000
 rotmap:
 (   1->   5)  (   2->   7)  (   3->   8)  (   4->   6)  (   5->   2) 
 (   6->   4)  (   7->   3)  (   8->   1) 

 ptrans:     0.0000000     0.5000000     0.5000000
 rotmap:
 (   1->   8)  (   2->   6)  (   3->   5)  (   4->   7)  (   5->   3) 
 (   6->   1)  (   7->   2)  (   8->   4) 


 irot  :  33
 --------------------------------------------------------------------
 isymop:   0   1   0
           0   0  -1
          -1   0   0

 gtrans:     0.5000000     0.2500000    -0.2500000

 ptrans:     0.0000000     0.0000000     0.0000000
 rotmap:
 (   1->   4)  (   2->   1)  (   3->   3)  (   4->   2)  (   5->   7) 
 (   6->   6)  (   7->   8)  (   8->   5) 

 ptrans:     0.5000000     0.5000000     0.0000000
 rotmap:
 (   1->   1)  (   2->   4)  (   3->   2)  (   4->   3)  (   5->   6) 
 (   6->   7)  (   7->   5)  (   8->   8) 

 ptrans:     0.5000000     0.0000000     0.5000000
 rotmap:
 (   1->   2)  (   2->   3)  (   3->   1)  (   4->   4)  (   5->   5) 
 (   6->   8)  (   7->   6)  (   8->   7) 

 ptrans:     0.0000000     0.5000000     0.5000000
 rotmap:
 (   1->   3)  (   2->   2)  (   3->   4)  (   4->   1)  (   5->   8) 
 (   6->   5)  (   7->   7)  (   8->   6) 


 irot  :  34
 --------------------------------------------------------------------
 isymop:   0  -1   0
           0   0   1
           1   0   0

 gtrans:     0.5000000     0.2500000    -0.2500000

 ptrans:     0.0000000     0.0000000     0.0000000
 rotmap:
 (   1->   7)  (   2->   6)  (   3->   8)  (   4->   5)  (   5->   4) 
 (   6->   1)  (   7->   3)  (   8->   2) 

 ptrans:     0.5000000     0.5000000     0.0000000
 rotmap:
 (   1->   6)  (   2->   7)  (   3->   5)  (   4->   8)  (   5->   1) 
 (   6->   4)  (   7->   2)  (   8->   3) 

 ptrans:     0.5000000     0.0000000     0.5000000
 rotmap:
 (   1->   5)  (   2->   8)  (   3->   6)  (   4->   7)  (   5->   2) 
 (   6->   3)  (   7->   1)  (   8->   4) 

 ptrans:     0.0000000     0.5000000     0.5000000
 rotmap:
 (   1->   8)  (   2->   5)  (   3->   7)  (   4->   6)  (   5->   3) 
 (   6->   2)  (   7->   4)  (   8->   1) 


 irot  :  35
 --------------------------------------------------------------------
 isymop:   1   0   0
           0  -1   0
           0   0  -1

 gtrans:     0.5000000     0.2500000    -0.2500000

 ptrans:     0.0000000     0.0000000     0.0000000
 rotmap:
 (   1->   4)  (   2->   3)  (   3->   2)  (   4->   1)  (   5->   7) 
 (   6->   8)  (   7->   5)  (   8->   6) 

 ptrans:     0.5000000     0.5000000     0.0000000
 rotmap:
 (   1->   1)  (   2->   2)  (   3->   3)  (   4->   4)  (   5->   6) 
 (   6->   5)  (   7->   8)  (   8->   7) 

 ptrans:     0.5000000     0.0000000     0.5000000
 rotmap:
 (   1->   2)  (   2->   1)  (   3->   4)  (   4->   3)  (   5->   5) 
 (   6->   6)  (   7->   7)  (   8->   8) 

 ptrans:     0.0000000     0.5000000     0.5000000
 rotmap:
 (   1->   3)  (   2->   4)  (   3->   1)  (   4->   2)  (   5->   8) 
 (   6->   7)  (   7->   6)  (   8->   5) 


 irot  :  36
 --------------------------------------------------------------------
 isymop:  -1   0   0
           0   1   0
           0   0   1

 gtrans:     0.5000000     0.2500000    -0.2500000

 ptrans:     0.0000000     0.0000000     0.0000000
 rotmap:
 (   1->   7)  (   2->   8)  (   3->   5)  (   4->   6)  (   5->   4) 
 (   6->   3)  (   7->   2)  (   8->   1) 

 ptrans:     0.5000000     0.5000000     0.0000000
 rotmap:
 (   1->   6)  (   2->   5)  (   3->   8)  (   4->   7)  (   5->   1) 
 (   6->   2)  (   7->   3)  (   8->   4) 

 ptrans:     0.5000000     0.0000000     0.5000000
 rotmap:
 (   1->   5)  (   2->   6)  (   3->   7)  (   4->   8)  (   5->   2) 
 (   6->   1)  (   7->   4)  (   8->   3) 

 ptrans:     0.0000000     0.5000000     0.5000000
 rotmap:
 (   1->   8)  (   2->   7)  (   3->   6)  (   4->   5)  (   5->   3) 
 (   6->   4)  (   7->   1)  (   8->   2) 


 irot  :  37
 --------------------------------------------------------------------
 isymop:   0   0   1
           0   1   0
          -1   0   0

 gtrans:     0.2500000     0.2500000     0.0000000

 ptrans:     0.0000000     0.0000000     0.0000000
 rotmap:
 (   1->   5)  (   2->   8)  (   3->   7)  (   4->   6)  (   5->   4) 
 (   6->   1)  (   7->   2)  (   8->   3) 

 ptrans:     0.5000000     0.5000000     0.0000000
 rotmap:
 (   1->   8)  (   2->   5)  (   3->   6)  (   4->   7)  (   5->   1) 
 (   6->   4)  (   7->   3)  (   8->   2) 

 ptrans:     0.5000000     0.0000000     0.5000000
 rotmap:
 (   1->   7)  (   2->   6)  (   3->   5)  (   4->   8)  (   5->   2) 
 (   6->   3)  (   7->   4)  (   8->   1) 

 ptrans:     0.0000000     0.5000000     0.5000000
 rotmap:
 (   1->   6)  (   2->   7)  (   3->   8)  (   4->   5)  (   5->   3) 
 (   6->   2)  (   7->   1)  (   8->   4) 


 irot  :  38
 --------------------------------------------------------------------
 isymop:   0   0  -1
           0  -1   0
           1   0   0

 gtrans:     0.2500000     0.2500000     0.0000000

 ptrans:     0.0000000     0.0000000     0.0000000
 rotmap:
 (   1->   4)  (   2->   1)  (   3->   2)  (   4->   3)  (   5->   5) 
 (   6->   8)  (   7->   7)  (   8->   6) 

 ptrans:     0.5000000     0.5000000     0.0000000
 rotmap:
 (   1->   1)  (   2->   4)  (   3->   3)  (   4->   2)  (   5->   8) 
 (   6->   5)  (   7->   6)  (   8->   7) 

 ptrans:     0.5000000     0.0000000     0.5000000
 rotmap:
 (   1->   2)  (   2->   3)  (   3->   4)  (   4->   1)  (   5->   7) 
 (   6->   6)  (   7->   5)  (   8->   8) 

 ptrans:     0.0000000     0.5000000     0.5000000
 rotmap:
 (   1->   3)  (   2->   2)  (   3->   1)  (   4->   4)  (   5->   6) 
 (   6->   7)  (   7->   8)  (   8->   5) 


 irot  :  39
 --------------------------------------------------------------------
 isymop:   0   1   0
           1   0   0
           0   0  -1

 gtrans:     0.2500000     0.2500000     0.0000000

 ptrans:     0.0000000     0.0000000     0.0000000
 rotmap:
 (   1->   5)  (   2->   7)  (   3->   6)  (   4->   8)  (   5->   4) 
 (   6->   2)  (   7->   3)  (   8->   1) 

 ptrans:     0.5000000     0.5000000     0.0000000
 rotmap:
 (   1->   8)  (   2->   6)  (   3->   7)  (   4->   5)  (   5->   1) 
 (   6->   3)  (   7->   2)  (   8->   4) 

 ptrans:     0.5000000     0.0000000     0.5000000
 rotmap:
 (   1->   7)  (   2->   5)  (   3->   8)  (   4->   6)  (   5->   2) 
 (   6->   4)  (   7->   1)  (   8->   3) 

 ptrans:     0.0000000     0.5000000     0.5000000
 rotmap:
 (   1->   6)  (   2->   8)  (   3->   5)  (   4->   7)  (   5->   3) 
 (   6->   1)  (   7->   4)  (   8->   2) 


 irot  :  40
 --------------------------------------------------------------------
 isymop:   0  -1   0
          -1   0   0
           0   0   1

 gtrans:     0.2500000     0.2500000     0.0000000

 ptrans:     0.0000000     0.0000000     0.0000000
 rotmap:
 (   1->   4)  (   2->   2)  (   3->   3)  (   4->   1)  (   5->   5) 
 (   6->   7)  (   7->   6)  (   8->   8) 

 ptrans:     0.5000000     0.5000000     0.0000000
 rotmap:
 (   1->   1)  (   2->   3)  (   3->   2)  (   4->   4)  (   5->   8) 
 (   6->   6)  (   7->   7)  (   8->   5) 

 ptrans:     0.5000000     0.0000000     0.5000000
 rotmap:
 (   1->   2)  (   2->   4)  (   3->   1)  (   4->   3)  (   5->   7) 
 (   6->   5)  (   7->   8)  (   8->   6) 

 ptrans:     0.0000000     0.5000000     0.5000000
 rotmap:
 (   1->   3)  (   2->   1)  (   3->   4)  (   4->   2)  (   5->   6) 
 (   6->   8)  (   7->   5)  (   8->   7) 


 irot  :  41
 --------------------------------------------------------------------
 isymop:   1   0   0
           0   0   1
           0  -1   0

 gtrans:     0.2500000     0.2500000     0.0000000

 ptrans:     0.0000000     0.0000000     0.0000000
 rotmap:
 (   1->   5)  (   2->   6)  (   3->   8)  (   4->   7)  (   5->   4) 
 (   6->   3)  (   7->   1)  (   8->   2) 

 ptrans:     0.5000000     0.5000000     0.0000000
 rotmap:
 (   1->   8)  (   2->   7)  (   3->   5)  (   4->   6)  (   5->   1) 
 (   6->   2)  (   7->   4)  (   8->   3) 

 ptrans:     0.5000000     0.0000000     0.5000000
 rotmap:
 (   1->   7)  (   2->   8)  (   3->   6)  (   4->   5)  (   5->   2) 
 (   6->   1)  (   7->   3)  (   8->   4) 

 ptrans:     0.0000000     0.5000000     0.5000000
 rotmap:
 (   1->   6)  (   2->   5)  (   3->   7)  (   4->   8)  (   5->   3) 
 (   6->   4)  (   7->   2)  (   8->   1) 


 irot  :  42
 --------------------------------------------------------------------
 isymop:  -1   0   0
           0   0  -1
           0   1   0

 gtrans:     0.2500000     0.2500000     0.0000000

 ptrans:     0.0000000     0.0000000     0.0000000
 rotmap:
 (   1->   4)  (   2->   3)  (   3->   1)  (   4->   2)  (   5->   5) 
 (   6->   6)  (   7->   8)  (   8->   7) 

 ptrans:     0.5000000     0.5000000     0.0000000
 rotmap:
 (   1->   1)  (   2->   2)  (   3->   4)  (   4->   3)  (   5->   8) 
 (   6->   7)  (   7->   5)  (   8->   6) 

 ptrans:     0.5000000     0.0000000     0.5000000
 rotmap:
 (   1->   2)  (   2->   1)  (   3->   3)  (   4->   4)  (   5->   7) 
 (   6->   8)  (   7->   6)  (   8->   5) 

 ptrans:     0.0000000     0.5000000     0.5000000
 rotmap:
 (   1->   3)  (   2->   4)  (   3->   2)  (   4->   1)  (   5->   6) 
 (   6->   5)  (   7->   7)  (   8->   8) 


 irot  :  43
 --------------------------------------------------------------------
 isymop:   0  -1   0
           0   0   1
          -1   0   0

 gtrans:     0.2500000     0.5000000    -0.2500000

 ptrans:     0.0000000     0.0000000     0.0000000
 rotmap:
 (   1->   4)  (   2->   1)  (   3->   3)  (   4->   2)  (   5->   6) 
 (   6->   7)  (   7->   5)  (   8->   8) 

 ptrans:     0.5000000     0.5000000     0.0000000
 rotmap:
 (   1->   1)  (   2->   4)  (   3->   2)  (   4->   3)  (   5->   7) 
 (   6->   6)  (   7->   8)  (   8->   5) 

 ptrans:     0.5000000     0.0000000     0.5000000
 rotmap:
 (   1->   2)  (   2->   3)  (   3->   1)  (   4->   4)  (   5->   8) 
 (   6->   5)  (   7->   7)  (   8->   6) 

 ptrans:     0.0000000     0.5000000     0.5000000
 rotmap:
 (   1->   3)  (   2->   2)  (   3->   4)  (   4->   1)  (   5->   5) 
 (   6->   8)  (   7->   6)  (   8->   7) 


 irot  :  44
 --------------------------------------------------------------------
 isymop:   0   1   0
           0   0  -1
           1   0   0

 gtrans:     0.2500000     0.5000000    -0.2500000

 ptrans:     0.0000000     0.0000000     0.0000000
 rotmap:
 (   1->   6)  (   2->   7)  (   3->   5)  (   4->   8)  (   5->   4) 
 (   6->   1)  (   7->   3)  (   8->   2) 

 ptrans:     0.5000000     0.5000000     0.0000000
 rotmap:
 (   1->   7)  (   2->   6)  (   3->   8)  (   4->   5)  (   5->   1) 
 (   6->   4)  (   7->   2)  (   8->   3) 

 ptrans:     0.5000000     0.0000000     0.5000000
 rotmap:
 (   1->   8)  (   2->   5)  (   3->   7)  (   4->   6)  (   5->   2) 
 (   6->   3)  (   7->   1)  (   8->   4) 

 ptrans:     0.0000000     0.5000000     0.5000000
 rotmap:
 (   1->   5)  (   2->   8)  (   3->   6)  (   4->   7)  (   5->   3) 
 (   6->   2)  (   7->   4)  (   8->   1) 


 irot  :  45
 --------------------------------------------------------------------
 isymop:  -1   0   0
           0   1   0
           0   0  -1

 gtrans:     0.2500000     0.5000000    -0.2500000

 ptrans:     0.0000000     0.0000000     0.0000000
 rotmap:
 (   1->   4)  (   2->   3)  (   3->   2)  (   4->   1)  (   5->   6) 
 (   6->   5)  (   7->   8)  (   8->   7) 

 ptrans:     0.5000000     0.5000000     0.0000000
 rotmap:
 (   1->   1)  (   2->   2)  (   3->   3)  (   4->   4)  (   5->   7) 
 (   6->   8)  (   7->   5)  (   8->   6) 

 ptrans:     0.5000000     0.0000000     0.5000000
 rotmap:
 (   1->   2)  (   2->   1)  (   3->   4)  (   4->   3)  (   5->   8) 
 (   6->   7)  (   7->   6)  (   8->   5) 

 ptrans:     0.0000000     0.5000000     0.5000000
 rotmap:
 (   1->   3)  (   2->   4)  (   3->   1)  (   4->   2)  (   5->   5) 
 (   6->   6)  (   7->   7)  (   8->   8) 


 irot  :  46
 --------------------------------------------------------------------
 isymop:   1   0   0
           0  -1   0
           0   0   1

 gtrans:     0.2500000     0.5000000    -0.2500000

 ptrans:     0.0000000     0.0000000     0.0000000
 rotmap:
 (   1->   6)  (   2->   5)  (   3->   8)  (   4->   7)  (   5->   4) 
 (   6->   3)  (   7->   2)  (   8->   1) 

 ptrans:     0.5000000     0.5000000     0.0000000
 rotmap:
 (   1->   7)  (   2->   8)  (   3->   5)  (   4->   6)  (   5->   1) 
 (   6->   2)  (   7->   3)  (   8->   4) 

 ptrans:     0.5000000     0.0000000     0.5000000
 rotmap:
 (   1->   8)  (   2->   7)  (   3->   6)  (   4->   5)  (   5->   2) 
 (   6->   1)  (   7->   4)  (   8->   3) 

 ptrans:     0.0000000     0.5000000     0.5000000
 rotmap:
 (   1->   5)  (   2->   6)  (   3->   7)  (   4->   8)  (   5->   3) 
 (   6->   4)  (   7->   1)  (   8->   2) 


 irot  :  47
 --------------------------------------------------------------------
 isymop:   0   0  -1
           1   0   0
           0  -1   0

 gtrans:     0.2500000     0.5000000    -0.2500000

 ptrans:     0.0000000     0.0000000     0.0000000
 rotmap:
 (   1->   4)  (   2->   2)  (   3->   1)  (   4->   3)  (   5->   6) 
 (   6->   8)  (   7->   7)  (   8->   5) 

 ptrans:     0.5000000     0.5000000     0.0000000
 rotmap:
 (   1->   1)  (   2->   3)  (   3->   4)  (   4->   2)  (   5->   7) 
 (   6->   5)  (   7->   6)  (   8->   8) 

 ptrans:     0.5000000     0.0000000     0.5000000
 rotmap:
 (   1->   2)  (   2->   4)  (   3->   3)  (   4->   1)  (   5->   8) 
 (   6->   6)  (   7->   5)  (   8->   7) 

 ptrans:     0.0000000     0.5000000     0.5000000
 rotmap:
 (   1->   3)  (   2->   1)  (   3->   2)  (   4->   4)  (   5->   5) 
 (   6->   7)  (   7->   8)  (   8->   6) 


 irot  :  48
 --------------------------------------------------------------------
 isymop:   0   0   1
          -1   0   0
           0   1   0

 gtrans:     0.2500000     0.5000000    -0.2500000

 ptrans:     0.0000000     0.0000000     0.0000000
 rotmap:
 (   1->   6)  (   2->   8)  (   3->   7)  (   4->   5)  (   5->   4) 
 (   6->   2)  (   7->   1)  (   8->   3) 

 ptrans:     0.5000000     0.5000000     0.0000000
 rotmap:
 (   1->   7)  (   2->   5)  (   3->   6)  (   4->   8)  (   5->   1) 
 (   6->   3)  (   7->   4)  (   8->   2) 

 ptrans:     0.5000000     0.0000000     0.5000000
 rotmap:
 (   1->   8)  (   2->   6)  (   3->   5)  (   4->   7)  (   5->   2) 
 (   6->   4)  (   7->   3)  (   8->   1) 

 ptrans:     0.0000000     0.5000000     0.5000000
 rotmap:
 (   1->   5)  (   2->   7)  (   3->   8)  (   4->   6)  (   5->   3) 
 (   6->   1)  (   7->   2)  (   8->   4) 
 
 
 KPOINTS: Automatic mesh                          

Automatic generation of k-mesh.
Space group operators:
 irot       det(A)        alpha          n_x          n_y          n_z        tau_x        tau_y        tau_z
    1     1.000000     0.000000     1.000000     0.000000     0.000000     0.000000     0.000000     0.000000
    2    -1.000000     0.000000     1.000000     0.000000     0.000000     0.000000     0.000000     0.000000
    3     1.000000   120.000000    -0.577350    -0.577350    -0.577350     0.000000     0.000000     0.000000
    4    -1.000000   120.000000    -0.577350    -0.577350    -0.577350     0.000000     0.000000     0.000000
    5     1.000000   120.000000     0.577350     0.577350     0.577350     0.000000     0.000000     0.000000
    6    -1.000000   120.000000     0.577350     0.577350     0.577350     0.000000     0.000000     0.000000
    7     1.000000   180.000000     0.000000    -0.707107     0.707107     0.000000     0.000000     0.000000
    8    -1.000000   180.000000     0.000000    -0.707107     0.707107     0.000000     0.000000     0.000000
    9     1.000000   180.000000     0.707107    -0.707107     0.000000     0.000000     0.000000     0.000000
   10    -1.000000   180.000000     0.707107    -0.707107     0.000000     0.000000     0.000000     0.000000
   11     1.000000   180.000000     0.707107     0.000000    -0.707107     0.000000     0.000000     0.000000
   12    -1.000000   180.000000     0.707107     0.000000    -0.707107     0.000000     0.000000     0.000000
   13     1.000000    90.000000     0.000000     0.000000    -1.000000     0.500000     0.250000    -0.250000
   14    -1.000000    90.000000     0.000000     0.000000    -1.000000     0.500000     0.250000    -0.250000
   15     1.000000   180.000000     0.000000     0.707107     0.707107     0.500000     0.250000    -0.250000
   16    -1.000000   180.000000     0.000000     0.707107     0.707107     0.500000     0.250000    -0.250000
   17     1.000000    90.000000     0.000000     1.000000     0.000000     0.500000     0.250000    -0.250000
   18    -1.000000    90.000000     0.000000     1.000000     0.000000     0.500000     0.250000    -0.250000
   19     1.000000   180.000000     0.000000     0.000000     1.000000     0.250000     0.250000     0.000000
   20    -1.000000   180.000000     0.000000     0.000000     1.000000     0.250000     0.250000     0.000000
   21     1.000000   120.000000    -0.577350     0.577350     0.577350     0.250000     0.250000     0.000000
   22    -1.000000   120.000000    -0.577350     0.577350     0.577350     0.250000     0.250000     0.000000
   23     1.000000   120.000000    -0.577350     0.577350    -0.577350     0.250000     0.250000     0.000000
   24    -1.000000   120.000000    -0.577350     0.577350    -0.577350     0.250000     0.250000     0.000000
   25     1.000000    90.000000     0.000000     0.000000     1.000000     0.250000     0.500000    -0.250000
   26    -1.000000    90.000000     0.000000     0.000000     1.000000     0.250000     0.500000    -0.250000
   27     1.000000    90.000000    -1.000000     0.000000     0.000000     0.250000     0.500000    -0.250000
   28    -1.000000    90.000000    -1.000000     0.000000     0.000000     0.250000     0.500000    -0.250000
   29     1.000000   180.000000     0.707107     0.000000     0.707107     0.250000     0.500000    -0.250000
   30    -1.000000   180.000000     0.707107     0.000000     0.707107     0.250000     0.500000    -0.250000
   31     1.000000   120.000000     0.577350    -0.577350     0.577350     0.500000     0.250000    -0.250000
   32    -1.000000   120.000000     0.577350    -0.577350     0.577350     0.500000     0.250000    -0.250000
   33     1.000000   120.000000    -0.577350    -0.577350     0.577350     0.500000     0.250000    -0.250000
   34    -1.000000   120.000000    -0.577350    -0.577350     0.577350     0.500000     0.250000    -0.250000
   35     1.000000   180.000000     1.000000     0.000000     0.000000     0.500000     0.250000    -0.250000
   36    -1.000000   180.000000     1.000000     0.000000     0.000000     0.500000     0.250000    -0.250000
   37     1.000000    90.000000     0.000000    -1.000000     0.000000     0.250000     0.250000     0.000000
   38    -1.000000    90.000000     0.000000    -1.000000     0.000000     0.250000     0.250000     0.000000
   39     1.000000   180.000000     0.707107     0.707107     0.000000     0.250000     0.250000     0.000000
   40    -1.000000   180.000000     0.707107     0.707107     0.000000     0.250000     0.250000     0.000000
   41     1.000000    90.000000     1.000000     0.000000     0.000000     0.250000     0.250000     0.000000
   42    -1.000000    90.000000     1.000000     0.000000     0.000000     0.250000     0.250000     0.000000
   43     1.000000   120.000000     0.577350    -0.577350    -0.577350     0.250000     0.500000    -0.250000
   44    -1.000000   120.000000     0.577350    -0.577350    -0.577350     0.250000     0.500000    -0.250000
   45     1.000000   180.000000     0.000000     1.000000     0.000000     0.250000     0.500000    -0.250000
   46    -1.000000   180.000000     0.000000     1.000000     0.000000     0.250000     0.500000    -0.250000
   47     1.000000   120.000000     0.577350     0.577350    -0.577350     0.250000     0.500000    -0.250000
   48    -1.000000   120.000000     0.577350     0.577350    -0.577350     0.250000     0.500000    -0.250000
 
 Subroutine IBZKPT returns following result:
 ===========================================
 
 Found      1 irreducible k-points:
 
 Following reciprocal coordinates:
            Coordinates               Weight
  0.250000  0.250000  0.250000      8.000000
 
 Following cartesian coordinates:
            Coordinates               Weight
  0.045872  0.045872  0.045872      8.000000
 


--------------------------------------------------------------------------------------------------------




 Dimension of arrays:
   k-points           NKPTS =      1   k-points in BZ     NKDIM =      1   number of bands    NBANDS=     21
   number of dos      NEDOS =    301   number of ions     NIONS =      8
   non local maximal  LDIM  =      4   non local SUM 2l+1 LMDIM =      8
   total plane-waves  NPLWV =  32768
   max r-space proj   IRMAX =      1   max aug-charges    IRDMAX=  54337
   dimension x,y,z NGX =    32 NGY =   32 NGZ =   32
   dimension x,y,z NGXF=    64 NGYF=   64 NGZF=   64
   support grid    NGXF=   128 NGYF=  128 NGZF=  128
   ions per type =               8
 NGX,Y,Z   is equivalent  to a cutoff of   9.76,  9.76,  9.76 a.u.
 NGXF,Y,Z  is equivalent  to a cutoff of  19.52, 19.52, 19.52 a.u.


 I would recommend the setting:
   dimension x,y,z NGX =    31 NGY =   31 NGZ =   31
 SYSTEM =  unknown system                          
 POSCAR =   Si                                     

 Startparameter for this run:
   NWRITE =      2    write-flag & timer
   PREC   = accura    normal or accurate (medium, high low for compatibility)
   ISTART =      0    job   : 0-new  1-cont  2-samecut
   ICHARG =      2    charge: 1-file 2-atom 10-const
   ISPIN  =      1    spin polarized calculation?
   LNONCOLLINEAR =      F non collinear calculations
   LSORBIT =      F    spin-orbit coupling
   INIWAV =      1    electr: 0-lowe 1-rand  2-diag
   LASPH  =      F    aspherical Exc in radial PAW
   METAGGA=      F    non-selfconsistent MetaGGA calc.

 Electronic Relaxation 1
   ENCUT  =  300.0 eV  22.05 Ry    4.70 a.u.   7.70  7.70  7.70*2*pi/ulx,y,z
   ENINI  =  300.0     initial cutoff
   ENAUG  =  322.1 eV  augmentation charge cutoff
   NELM   =    100;   NELMIN=  5; NELMDL= -5     # of ELM steps 
   EDIFF  = 0.1E-07   stopping-criterion for ELM
   LREAL  =      F    real-space projection
   NLSPLINE    = F    spline interpolate recip. space projectors
   LCOMPAT=      F    compatible to vasp.4.4
   GGA_COMPAT  = T    GGA compatible to vasp.4.4-vasp.4.6
   LMAXPAW     = -100 max onsite density
   LMAXMIX     =    2 max onsite mixed and CHGCAR
   VOSKOWN=      0    Vosko Wilk Nusair interpolation
   ROPT   =    0.00000
 Ionic relaxation
   EDIFFG = -.1E-07   stopping-criterion for IOM
   NSW    =    100    number of steps for IOM
   NBLOCK =      1;   KBLOCK =    100    inner block; outer block 
   IBRION =      1    ionic relax: 0-MD 1-quasi-New 2-CG
   NFREE  =      0    steps in history (QN), initial steepest desc. (CG)
   ISIF   =      3    stress and relaxation
   IWAVPR =     11    prediction:  0-non 1-charg 2-wave 3-comb
   ISYM   =      2    0-nonsym 1-usesym 2-fastsym
   LCORR  =      T    Harris-Foulkes like correction to forces

   POTIM  = 0.5000    time-step for ionic-motion
   TEIN   =    0.0    initial temperature
   TEBEG  =    0.0;   TEEND  =   0.0 temperature during run
   SMASS  =  -3.00    Nose mass-parameter (am)
   estimated Nose-frequenzy (Omega)   =  0.10E-29 period in steps =****** mass=  -0.679E-27a.u.
   SCALEE = 1.0000    scale energy and forces
   NPACO  =    256;   APACO  = 16.0  distance and # of slots for P.C.
   PSTRESS=    0.0 pullay stress

  Mass of Ions in am
   POMASS =  28.09
  Ionic Valenz
   ZVAL   =   4.00
  Atomic Wigner-Seitz radii
   RWIGS  =  -1.00
  virtual crystal weights 
   VCA    =   1.00
   NELECT =      32.0000    total number of electrons
   NUPDOWN=      -1.0000    fix difference up-down

 DOS related values:
   EMIN   =  10.00;   EMAX   =-10.00  energy-range for DOS
   EFERMI =   0.00
   ISMEAR =     0;   SIGMA  =   0.01  broadening in eV -4-tet -1-fermi 0-gaus

 Electronic relaxation 2 (details)
   IALGO  =     38    algorithm
   LDIAG  =      T    sub-space diagonalisation (order eigenvalues)
   LSUBROT=      T    optimize rotation matrix (better conditioning)
   TURBO    =      0    0=normal 1=particle mesh
   IRESTART =      0    0=no restart 2=restart with 2 vectors
   NREBOOT  =      0    no. of reboots
   NMIN     =      0    reboot dimension
   EREF     =   0.00    reference energy to select bands
   IMIX   =      4    mixing-type and parameters
     AMIX     =   0.40;   BMIX     =  1.00
     AMIX_MAG =   1.60;   BMIX_MAG =  1.00
     AMIN     =   0.10
     WC   =   100.;   INIMIX=   1;  MIXPRE=   1;  MAXMIX= -45

 Intra band minimization:
   WEIMIN = 0.0010     energy-eigenvalue tresh-hold
   EBREAK =  0.12E-10  absolut break condition
   DEPER  =   0.30     relativ break condition  

   TIME   =   0.40     timestep for ELM

  volume/ion in A,a.u.               =      20.23       136.55
  Fermi-wavevector in a.u.,A,eV,Ry     =   0.953663  1.802162 12.374136  0.909473
  Thomas-Fermi vector in A             =   2.082339
 
 Write flags
   LWAVE  =      F    write WAVECAR
   LCHARG =      F    write CHGCAR
   LVTOT  =      F    write LOCPOT, total local potential
   LVHAR  =      F    write LOCPOT, Hartree potential only
   LELF   =      F    write electronic localiz. function (ELF)
   LORBIT =      0    0 simple, 1 ext, 2 COOP (PROOUT)


 Dipole corrections
   LMONO  =      F    monopole corrections only (constant potential shift)
   LDIPOL =      F    correct potential (dipole corrections)
   IDIPOL =      0    1-x, 2-y, 3-z, 4-all directions 
   EPSILON=  1.0000000 bulk dielectric constant

 Exchange correlation treatment:
   GGA     =    PS    GGA type
   LEXCH   =    14    internal setting for exchange type
   VOSKOWN=      0    Vosko Wilk Nusair interpolation
   LHFCALC =     F    Hartree Fock is set to
   LHFONE  =     F    Hartree Fock one center treatment
   AEXX    =    0.0000 exact exchange contribution

 Linear response parameters
   LEPSILON=     F    determine dielectric tensor
   LRPA    =     F    only Hartree local field effects (RPA)
   LNABLA  =     F    use nabla operator in PAW spheres
   LVEL    =     F    velocity operator in full k-point grid
   LINTERFAST=   F  fast interpolation
   KINTER  =     0    interpolate to denser k-point grid
   CSHIFT  =0.1000    complex shift for real part using Kramers Kronig
   OMEGAMAX=  -1.0    maximum frequency
   DEG_THRESHOLD= 0.2000000E-02 threshold for treating states as degnerate
   RTIME   =    0.100 relaxation time in fs

 Orbital magnetization related:
   ORBITALMAG=     F  switch on orbital magnetization
   LCHIMAG   =     F  perturbation theory with respect to B field
   DQ        =  0.001000  dq finite difference perturbation B field



--------------------------------------------------------------------------------------------------------


 quasi-Newton-method for relaxation of ions
 charge density and potential will be updated during run
 non-spin polarized calculation
 Variant of blocked Davidson
 Davidson routine will perform the subspace rotation
 perform sub-space diagonalisation
    after iterative eigenvector-optimisation
 modified Broyden-mixing scheme, WC =      100.0
 initial mixing is a Kerker type mixing with AMIX =  0.4000 and BMIX =      1.0000
 Hartree-type preconditioning will be used
 using additional bands            5
 reciprocal scheme for non local part
 use partial core corrections
 calculate Harris-corrections to forces 
   (improved forces if not selfconsistent)
 use gradient corrections 
 use of overlap-Matrix (Vanderbilt PP)
 Gauss-broadening in eV      SIGMA  =   0.01


--------------------------------------------------------------------------------------------------------


  energy-cutoff  :      300.00
  volume of cell :      161.88
      direct lattice vectors                 reciprocal lattice vectors
     5.450000000  0.000000000  0.000000000     0.183486239  0.000000000  0.000000000
     0.000000000  5.450000000  0.000000000     0.000000000  0.183486239  0.000000000
     0.000000000  0.000000000  5.450000000     0.000000000  0.000000000  0.183486239

  length of vectors
     5.450000000  5.450000000  5.450000000     0.183486239  0.183486239  0.183486239


 
 k-points in units of 2pi/SCALE and weight: Automatic mesh                          
   0.04587156  0.04587156  0.04587156       1.000
 
 k-points in reciprocal lattice and weights: Automatic mesh                          
   0.25000000  0.25000000  0.25000000       1.000
 
 position of ions in fractional coordinates (direct lattice) 
   0.87500000  0.87500000  0.87500000
   0.87500000  0.37500000  0.37500000
   0.37500000  0.87500000  0.37500000
   0.37500000  0.37500000  0.87500000
   0.12500000  0.12500000  0.12500000
   0.12500000  0.62500000  0.62500000
   0.62500000  0.12500000  0.62500000
   0.62500000  0.62500000  0.12500000
 
 position of ions in cartesian coordinates  (Angst):
   4.76875000  4.76875000  4.76875000
   4.76875000  2.04375000  2.04375000
   2.04375000  4.76875000  2.04375000
   2.04375000  2.04375000  4.76875000
   0.68125000  0.68125000  0.68125000
   0.68125000  3.40625000  3.40625000
   3.40625000  0.68125000  3.40625000
   3.40625000  3.40625000  0.68125000
 


--------------------------------------------------------------------------------------------------------


 k-point  1 :   0.2500 0.2500 0.2500  plane waves:    1914

 maximum and minimum number of plane-waves per node :      1914     1914

 maximum number of plane-waves:      1914
 maximum index in each direction: 
   IXMAX=    7   IYMAX=    7   IZMAX=    7
   IXMIN=   -7   IYMIN=   -7   IZMIN=   -7

 NGX is ok and might be reduce to  30
 NGY is ok and might be reduce to  30
 NGZ is ok and might be reduce to  30

 serial   3D FFT for wavefunctions
 parallel 3D FFT for charge:
    minimum data exchange during FFTs selected (reduces bandwidth)


 total amount of memory used by VASP on root node    84183. kBytes
========================================================================

   base      :      30000. kBytes
   nonl-proj :        367. kBytes
   fftplans  :      38956. kBytes
   grid      :      14172. kBytes
   one-center:         24. kBytes
   wavefun   :        664. kBytes
 
 Broyden mixing: mesh for mixing (old mesh)
   NGX = 15   NGY = 15   NGZ = 15
  (NGX  = 64   NGY  = 64   NGZ  = 64)
  gives a total of   3375 points

 initial charge density was supplied:
 charge density of overlapping atoms calculated
 number of electron      32.0000000 magnetization 
 keeping initial charge density in first step


--------------------------------------------------------------------------------------------------------


 Maximum index for augmentation-charges        52515 (set IRDMAX)


--------------------------------------------------------------------------------------------------------


 First call to EWALD:  gamma=   0.325
 Maximum number of real-space cells 3x 3x 3
 Maximum number of reciprocal cells 3x 3x 3

 FEWALD executed in parallel
    FEWALD:  cpu time    0.00: real time    0.00


----------------------------------------- Iteration    1(   1)  ---------------------------------------


    POTLOK:  cpu time    0.13: real time    0.14
    SETDIJ:  cpu time    0.09: real time    0.09
     EDDAV:  cpu time    0.08: real time    0.08
       DOS:  cpu time    0.00: real time    0.00
    --------------------------------------------
      LOOP:  cpu time    0.31: real time    0.31

 eigenvalue-minimisations  :    42
 total energy-change (2. order) : 0.3909812E+02  (-0.8743822E+03)
 number of electron      32.0000000 magnetization 
 augmentation part       32.0000000 magnetization 

 Free energy of the ion-electron system (eV)
  ---------------------------------------------------
  alpha Z        PSCENC =        13.30898611
  Ewald energy   TEWEN  =      -910.89907151
  -1/2 Hartree   DENC   =       -44.66892703
  -exchange  EXHF       =         0.00000000
  -V(xc)+E(xc)   XCENC  =       -69.98053156
  PAW double counting   =       699.82828177     -561.52230517
  entropy T*S    EENTRO =         0.00000000
  eigenvalues    EBANDS =        92.43942793
  atomic energy  EATOM  =       820.59225628
  ---------------------------------------------------
  free energy    TOTEN  =        39.09811681 eV

  energy without entropy =       39.09811681  energy(sigma->0) =       39.09811681


--------------------------------------------------------------------------------------------------------




----------------------------------------- Iteration    1(   2)  ---------------------------------------


     EDDAV:  cpu time    0.11: real time    0.11
       DOS:  cpu time    0.00: real time    0.00
    --------------------------------------------
      LOOP:  cpu time    0.11: real time    0.11

 eigenvalue-minimisations  :    60
 total energy-change (2. order) :-0.8244442E+02  (-0.7663743E+02)
 number of electron      32.0000000 magnetization 
 augmentation part       32.0000000 magnetization 

 Free energy of the ion-electron system (eV)
  ---------------------------------------------------
  alpha Z        PSCENC =        13.30898611
  Ewald energy   TEWEN  =      -910.89907151
  -1/2 Hartree   DENC   =       -44.66892703
  -exchange  EXHF       =         0.00000000
  -V(xc)+E(xc)   XCENC  =       -69.98053156
  PAW double counting   =       699.82828177     -561.52230517
  entropy T*S    EENTRO =         0.00000000
  eigenvalues    EBANDS =         9.99501010
  atomic energy  EATOM  =       820.59225628
  ---------------------------------------------------
  free energy    TOTEN  =       -43.34630101 eV

  energy without entropy =      -43.34630101  energy(sigma->0) =      -43.34630101


--------------------------------------------------------------------------------------------------------




----------------------------------------- Iteration    1(   3)  ---------------------------------------


     EDDAV:  cpu time    0.09: real time    0.09
       DOS:  cpu time    0.00: real time    0.00
    --------------------------------------------
      LOOP:  cpu time    0.09: real time    0.09

 eigenvalue-minimisations  :    52
 total energy-change (2. order) :-0.2830975E+01  (-0.2812157E+01)
 number of electron      32.0000000 magnetization 
 augmentation part       32.0000000 magnetization 

 Free energy of the ion-electron system (eV)
  ---------------------------------------------------
  alpha Z        PSCENC =        13.30898611
  Ewald energy   TEWEN  =      -910.89907151
  -1/2 Hartree   DENC   =       -44.66892703
  -exchange  EXHF       =         0.00000000
  -V(xc)+E(xc)   XCENC  =       -69.98053156
  PAW double counting   =       699.82828177     -561.52230517
  entropy T*S    EENTRO =         0.00000000
  eigenvalues    EBANDS =         7.16403521
  atomic energy  EATOM  =       820.59225628
  ---------------------------------------------------
  free energy    TOTEN  =       -46.17727590 eV

  energy without entropy =      -46.17727590  energy(sigma->0) =      -46.17727590


--------------------------------------------------------------------------------------------------------




----------------------------------------- Iteration    1(   4)  ---------------------------------------


     EDDAV:  cpu time    0.09: real time    0.09
       DOS:  cpu time    0.00: real time    0.00
    --------------------------------------------
      LOOP:  cpu time    0.09: real time    0.09

 eigenvalue-minimisations  :    52
 total energy-change (2. order) :-0.4920940E-01  (-0.4919577E-01)
 number of electron      32.0000000 magnetization 
 augmentation part       32.0000000 magnetization 

 Free energy of the ion-electron system (eV)
  ---------------------------------------------------
  alpha Z        PSCENC =        13.30898611
  Ewald energy   TEWEN  =      -910.89907151
  -1/2 Hartree   DENC   =       -44.66892703
  -exchange  EXHF       =         0.00000000
  -V(xc)+E(xc)   XCENC  =       -69.98053156
  PAW double counting   =       699.82828177     -561.52230517
  entropy T*S    EENTRO =         0.00000000
  eigenvalues    EBANDS =         7.11482581
  atomic energy  EATOM  =       820.59225628
  ---------------------------------------------------
  free energy    TOTEN  =       -46.22648530 eV

  energy without entropy =      -46.22648530  energy(sigma->0) =      -46.22648530


--------------------------------------------------------------------------------------------------------




----------------------------------------- Iteration    1(   5)  ---------------------------------------


     EDDAV:  cpu time    0.09: real time    0.09
       DOS:  cpu time    0.00: real time    0.00
    CHARGE:  cpu time    0.10: real time    0.10
    MIXING:  cpu time    0.00: real time    0.00
    --------------------------------------------
      LOOP:  cpu time    0.20: real time    0.20

 eigenvalue-minimisations  :    52
 total energy-change (2. order) :-0.1855621E-02  (-0.1855578E-02)
 number of electron      31.9999999 magnetization 
 augmentation part       -1.8515246 magnetization 

 Broyden mixing:
  rms(total) = 0.10170E+01    rms(broyden)= 0.10170E+01
  rms(prec ) = 0.13957E+01
  weight for this iteration     100.00

 Free energy of the ion-electron system (eV)
  ---------------------------------------------------
  alpha Z        PSCENC =        13.30898611
  Ewald energy   TEWEN  =      -910.89907151
  -1/2 Hartree   DENC   =       -44.66892703
  -exchange  EXHF       =         0.00000000
  -V(xc)+E(xc)   XCENC  =       -69.98053156
  PAW double counting   =       699.82828177     -561.52230517
  entropy T*S    EENTRO =         0.00000000
  eigenvalues    EBANDS =         7.11297019
  atomic energy  EATOM  =       820.59225628
  ---------------------------------------------------
  free energy    TOTEN  =       -46.22834092 eV

  energy without entropy =      -46.22834092  energy(sigma->0) =      -46.22834092


--------------------------------------------------------------------------------------------------------




----------------------------------------- Iteration    1(   6)  ---------------------------------------


    POTLOK:  cpu time    0.14: real time    0.14
    SETDIJ:  cpu time    0.09: real time    0.09
     EDDAV:  cpu time    0.08: real time    0.08
       DOS:  cpu time    0.00: real time    0.00
    CHARGE:  cpu time    0.10: real time    0.10
    MIXING:  cpu time    0.00: real time    0.00
    --------------------------------------------
      LOOP:  cpu time    0.41: real time    0.41

 eigenvalue-minimisations  :    42
 total energy-change (2. order) : 0.6604988E+00  (-0.3560084E-01)
 number of electron      31.9999999 magnetization 
 augmentation part       -1.8293961 magnetization 

 Broyden mixing:
  rms(total) = 0.61570E+00    rms(broyden)= 0.61570E+00
  rms(prec ) = 0.82906E+00
  weight for this iteration     100.00

 eigenvalues of (default mixing * dielectric matrix)
  average eigenvalue GAMMA=   2.5250
  2.5250

 Free energy of the ion-electron system (eV)
  ---------------------------------------------------
  alpha Z        PSCENC =        13.30898611
  Ewald energy   TEWEN  =      -910.89907151
  -1/2 Hartree   DENC   =       -50.69664624
  -exchange  EXHF       =         0.00000000
  -V(xc)+E(xc)   XCENC  =       -69.03858199
  PAW double counting   =      1563.20581832    -1425.30899871
  entropy T*S    EENTRO =         0.00000000
  eigenvalues    EBANDS =        13.26839561
  atomic energy  EATOM  =       820.59225628
  ---------------------------------------------------
  free energy    TOTEN  =       -45.56784212 eV

  energy without entropy =      -45.56784212  energy(sigma->0) =      -45.56784212


--------------------------------------------------------------------------------------------------------




----------------------------------------- Iteration    1(   7)  ---------------------------------------


    POTLOK:  cpu time    0.14: real time    0.14
    SETDIJ:  cpu time    0.09: real time    0.09
     EDDAV:  cpu time    0.08: real time    0.08
       DOS:  cpu time    0.00: real time    0.00
    CHARGE:  cpu time    0.10: real time    0.10
    MIXING:  cpu time    0.00: real time    0.00
    --------------------------------------------
      LOOP:  cpu time    0.41: real time    0.41

 eigenvalue-minimisations  :    42
 total energy-change (2. order) : 0.3020692E+00  (-0.6888902E-01)
 number of electron      31.9999999 magnetization 
 augmentation part       -1.8020687 magnetization 

 Broyden mixing:
  rms(total) = 0.37309E-01    rms(broyden)= 0.37308E-01
  rms(prec ) = 0.61168E-01
  weight for this iteration     100.00

 eigenvalues of (default mixing * dielectric matrix)
  average eigenvalue GAMMA=   2.2212
  2.2212  2.2212

 Free energy of the ion-electron system (eV)
  ---------------------------------------------------
  alpha Z        PSCENC =        13.30898611
  Ewald energy   TEWEN  =      -910.89907151
  -1/2 Hartree   DENC   =       -60.40043796
  -exchange  EXHF       =         0.00000000
  -V(xc)+E(xc)   XCENC  =       -67.43865709
  PAW double counting   =      3630.41021911    -3493.05563654
  entropy T*S    EENTRO =         0.00000000
  eigenvalues    EBANDS =        22.21656865
  atomic energy  EATOM  =       820.59225628
  ---------------------------------------------------
  free energy    TOTEN  =       -45.26577294 eV

  energy without entropy =      -45.26577294  energy(sigma->0) =      -45.26577294


--------------------------------------------------------------------------------------------------------




----------------------------------------- Iteration    1(   8)  ---------------------------------------


    POTLOK:  cpu time    0.14: real time    0.14
    SETDIJ:  cpu time    0.09: real time    0.09
     EDDAV:  cpu time    0.08: real time    0.08
       DOS:  cpu time    0.00: real time    0.00
    CHARGE:  cpu time    0.10: real time    0.10
    MIXING:  cpu time    0.00: real time    0.00
    --------------------------------------------
      LOOP:  cpu time    0.41: real time    0.41

 eigenvalue-minimisations  :    42
 total energy-change (2. order) :-0.2902921E-02  (-0.3179878E-02)
 number of electron      31.9999999 magnetization 
 augmentation part       -1.8071924 magnetization 

 Broyden mixing:
  rms(total) = 0.12095E-01    rms(broyden)= 0.12094E-01
  rms(prec ) = 0.18634E-01
  weight for this iteration     100.00

 eigenvalues of (default mixing * dielectric matrix)
  average eigenvalue GAMMA=   2.3575
  2.8192  2.1266  2.1266

 Free energy of the ion-electron system (eV)
  ---------------------------------------------------
  alpha Z        PSCENC =        13.30898611
  Ewald energy   TEWEN  =      -910.89907151
  -1/2 Hartree   DENC   =       -59.76018244
  -exchange  EXHF       =         0.00000000
  -V(xc)+E(xc)   XCENC  =       -67.47774484
  PAW double counting   =      3618.59452535    -3481.14858687
  entropy T*S    EENTRO =         0.00000000
  eigenvalues    EBANDS =        21.52114205
  atomic energy  EATOM  =       820.59225628
  ---------------------------------------------------
[...]
      3.40093      0.68019      3.40093         0.000000      0.000000      0.000000
      3.40093      3.40093      0.68019         0.000000      0.000000      0.000000
 -----------------------------------------------------------------------------------
    total drift:                                0.000000      0.000000      0.000000


--------------------------------------------------------------------------------------------------------



  FREE ENERGIE OF THE ION-ELECTRON SYSTEM (eV)
  ---------------------------------------------------
  free  energy   TOTEN  =       -45.27020633 eV

  energy  without entropy=      -45.27020633  energy(sigma->0) =      -45.27020633
 
 d Force = 0.0000000E+00[ 0.000E+00, 0.000E+00]  d Energy =-0.9922587E-09 0.992E-09
 d Force = 0.0000000E+00[ 0.000E+00, 0.000E+00]  d Ewald  =-0.5492860E-04 0.549E-04


--------------------------------------------------------------------------------------------------------


    POTLOK:  cpu time    0.23: real time    0.23


--------------------------------------------------------------------------------------------------------


 Quasi-Newton relaxation of ions (Broydens 2nd method)
  g(Force)  = 0.408E-59   g(Stress)= 0.858E-14

 retain information from N=  1 steps
 eigenvalues of (default step * inverse Hessian matrix)
  average eigenvalue of G=   0.5505
 eigenvalue spectrum of G is  0.5505


--------------------------------------------------------------------------------------------------------


    WAVPRE:  cpu time    0.03: real time    0.03
 FEWALD executed in parallel
    FEWALD:  cpu time    0.00: real time    0.00
    GENKIN:  cpu time    0.00: real time    0.00
    ORTHCH:  cpu time    0.00: real time    0.00
     LOOP+:  cpu time    4.64: real time    4.65


----------------------------------------- Iteration    6(   1)  ---------------------------------------


    POTLOK:  cpu time    0.14: real time    0.14
    SETDIJ:  cpu time    0.09: real time    0.09
     EDDAV:  cpu time    0.05: real time    0.05
       DOS:  cpu time    0.00: real time    0.00
    CHARGE:  cpu time    0.10: real time    0.10
    MIXING:  cpu time    0.00: real time    0.00
    --------------------------------------------
      LOOP:  cpu time    0.38: real time    0.38

 eigenvalue-minimisations  :    21
 total energy-change (2. order) : 0.2428351E-09  (-0.4920508E-12)
 number of electron      31.9999999 magnetization 
 augmentation part       -1.8079563 magnetization 

 Broyden mixing:
  rms(total) = 0.17293E-07    rms(broyden)= 0.17291E-07
  rms(prec ) = 0.35273E-07
  weight for this iteration     100.00

 Free energy of the ion-electron system (eV)
  ---------------------------------------------------
  alpha Z        PSCENC =        13.37150668
  Ewald energy   TEWEN  =      -912.32319664
  -1/2 Hartree   DENC   =       -59.79996279
  -exchange  EXHF       =         0.00000000
  -V(xc)+E(xc)   XCENC  =       -67.35086329
  PAW double counting   =      3625.31928651    -3487.89277448
  entropy T*S    EENTRO =         0.00000000
  eigenvalues    EBANDS =        22.81354139
  atomic energy  EATOM  =       820.59225628
  ---------------------------------------------------
  free energy    TOTEN  =       -45.27020633 eV

  energy without entropy =      -45.27020633  energy(sigma->0) =      -45.27020633


--------------------------------------------------------------------------------------------------------




----------------------------------------- Iteration    6(   2)  ---------------------------------------


    POTLOK:  cpu time    0.14: real time    0.14
    SETDIJ:  cpu time    0.09: real time    0.09
     EDDAV:  cpu time    0.05: real time    0.05
       DOS:  cpu time    0.00: real time    0.00
    CHARGE:  cpu time    0.10: real time    0.10
    MIXING:  cpu time    0.00: real time    0.00
    --------------------------------------------
      LOOP:  cpu time    0.38: real time    0.38

 eigenvalue-minimisations  :    21
 total energy-change (2. order) : 0.2924025E-09  (-0.1014078E-11)
 number of electron      31.9999999 magnetization 
 augmentation part       -1.8079563 magnetization 

 Broyden mixing:
  rms(total) = 0.13050E-07    rms(broyden)= 0.13050E-07
  rms(prec ) = 0.21143E-07
  weight for this iteration     100.00

 eigenvalues of (default mixing * dielectric matrix)
  average eigenvalue GAMMA=   1.7692
  1.7692

 Free energy of the ion-electron system (eV)
  ---------------------------------------------------
  alpha Z        PSCENC =        13.37150668
  Ewald energy   TEWEN  =      -912.32319664
  -1/2 Hartree   DENC   =       -59.79996254
  -exchange  EXHF       =         0.00000000
  -V(xc)+E(xc)   XCENC  =       -67.35086330
  PAW double counting   =      3625.31930424    -3487.89279221
  entropy T*S    EENTRO =         0.00000000
  eigenvalues    EBANDS =        22.81354116
  atomic energy  EATOM  =       820.59225628
  ---------------------------------------------------
  free energy    TOTEN  =       -45.27020633 eV

  energy without entropy =      -45.27020633  energy(sigma->0) =      -45.27020633


--------------------------------------------------------------------------------------------------------




----------------------------------------- Iteration    6(   3)  ---------------------------------------


    POTLOK:  cpu time    0.14: real time    0.14
    SETDIJ:  cpu time    0.09: real time    0.09
     EDDAV:  cpu time    0.05: real time    0.05
       DOS:  cpu time    0.00: real time    0.00
    CHARGE:  cpu time    0.10: real time    0.10
    MIXING:  cpu time    0.00: real time    0.00
    --------------------------------------------
      LOOP:  cpu time    0.38: real time    0.38

 eigenvalue-minimisations  :    21
 total energy-change (2. order) :-0.1732587E-09  (-0.2344791E-12)
 number of electron      31.9999999 magnetization 
 augmentation part       -1.8079563 magnetization 

 Broyden mixing:
  rms(total) = 0.22641E-08    rms(broyden)= 0.22640E-08
  rms(prec ) = 0.34017E-08
  weight for this iteration     100.00

 eigenvalues of (default mixing * dielectric matrix)
  average eigenvalue GAMMA=   1.6530
  1.0189  2.2871

 Free energy of the ion-electron system (eV)
  ---------------------------------------------------
  alpha Z        PSCENC =        13.37150668
  Ewald energy   TEWEN  =      -912.32319664
  -1/2 Hartree   DENC   =       -59.79996228
  -exchange  EXHF       =         0.00000000
  -V(xc)+E(xc)   XCENC  =       -67.35086331
  PAW double counting   =      3625.31934537    -3487.89283335
  entropy T*S    EENTRO =         0.00000000
  eigenvalues    EBANDS =        22.81354092
  atomic energy  EATOM  =       820.59225628
  ---------------------------------------------------
  free energy    TOTEN  =       -45.27020633 eV

  energy without entropy =      -45.27020633  energy(sigma->0) =      -45.27020633


--------------------------------------------------------------------------------------------------------




----------------------------------------- Iteration    6(   4)  ---------------------------------------


    POTLOK:  cpu time    0.14: real time    0.14
    SETDIJ:  cpu time    0.09: real time    0.09
     EDDAV:  cpu time    0.05: real time    0.05
       DOS:  cpu time    0.00: real time    0.00
    CHARGE:  cpu time    0.10: real time    0.10
    MIXING:  cpu time    0.00: real time    0.00
    --------------------------------------------
      LOOP:  cpu time    0.38: real time    0.38

 eigenvalue-minimisations  :    21
 total energy-change (2. order) :-0.3628884E-09  ( 0.5591083E-12)
 number of electron      31.9999999 magnetization 
 augmentation part       -1.8079563 magnetization 

 Broyden mixing:
  rms(total) = 0.22821E-08    rms(broyden)= 0.22821E-08
  rms(prec ) = 0.24824E-08
  weight for this iteration     100.00

 eigenvalues of (default mixing * dielectric matrix)
  average eigenvalue GAMMA=   2.2627
  2.4440  1.0555  3.2887

 Free energy of the ion-electron system (eV)
  ---------------------------------------------------
  alpha Z        PSCENC =        13.37150668
  Ewald energy   TEWEN  =      -912.32319664
  -1/2 Hartree   DENC   =       -59.79996225
  -exchange  EXHF       =         0.00000000
  -V(xc)+E(xc)   XCENC  =       -67.35086331
  PAW double counting   =      3625.31935130    -3487.89283928
  entropy T*S    EENTRO =         0.00000000
  eigenvalues    EBANDS =        22.81354089
  atomic energy  EATOM  =       820.59225628
  ---------------------------------------------------
  free energy    TOTEN  =       -45.27020633 eV

  energy without entropy =      -45.27020633  energy(sigma->0) =      -45.27020633


--------------------------------------------------------------------------------------------------------




----------------------------------------- Iteration    6(   5)  ---------------------------------------


    POTLOK:  cpu time    0.14: real time    0.14
    SETDIJ:  cpu time    0.09: real time    0.09
     EDDAV:  cpu time    0.05: real time    0.05
       DOS:  cpu time    0.00: real time    0.00
    --------------------------------------------
      LOOP:  cpu time    0.28: real time    0.28

 eigenvalue-minimisations  :    21
 total energy-change (2. order) : 0.1618901E-09  (-0.2250866E-11)
 number of electron      31.9999999 magnetization 
 augmentation part       -1.8079563 magnetization 

 Free energy of the ion-electron system (eV)
  ---------------------------------------------------
  alpha Z        PSCENC =        13.37150668
  Ewald energy   TEWEN  =      -912.32319664
  -1/2 Hartree   DENC   =       -59.79996223
  -exchange  EXHF       =         0.00000000
  -V(xc)+E(xc)   XCENC  =       -67.35086331
  PAW double counting   =      3625.31935883    -3487.89284681
  entropy T*S    EENTRO =         0.00000000
  eigenvalues    EBANDS =        22.81354087
  atomic energy  EATOM  =       820.59225628
  ---------------------------------------------------
  free energy    TOTEN  =       -45.27020633 eV

  energy without entropy =      -45.27020633  energy(sigma->0) =      -45.27020633


--------------------------------------------------------------------------------------------------------




 average (electrostatic) potential at core
  the test charge radii are     0.9892
  (the norm of the test charge is              1.0000)
       1 -83.0478       2 -83.0478       3 -83.0478       4 -83.0478       5 -83.0478
       6 -83.0478       7 -83.0478       8 -83.0478
 
 
 
 E-fermi :   5.0825     XC(G=0):  -9.5118     alpha+bet :-11.9088


 k-point   1 :       0.2500    0.2500    0.2500
  band No.  band energies     occupation 
      1      -5.3906      2.00000
      2      -3.4698      2.00000
      3      -3.4698      2.00000
      4      -3.4698      2.00000
      5      -0.6226      2.00000
      6      -0.6226      2.00000
      7      -0.6226      2.00000
      8       1.8208      2.00000
      9       2.1977      2.00000
     10       2.1977      2.00000
     11       2.1977      2.00000
     12       3.5504      2.00000
     13       3.5504      2.00000
     14       3.5504      2.00000
     15       5.0048      2.00000
     16       5.0048      2.00000
     17       7.1745      0.00000
     18       7.1745      0.00000
     19       7.1745      0.00000
     20       7.7028      0.00000
     21       9.2111      0.00000


--------------------------------------------------------------------------------------------------------


 soft charge-density along one line, spin component           1
         0         1         2         3         4         5         6         7         8         9
 total charge-density along one line
 
 pseudopotential strength for first ion, spin component:           1
 18.405  25.676   0.000   0.000   0.000   0.000   0.000   0.000
 25.676  35.825   0.000   0.000   0.000   0.000   0.000   0.000
  0.000   0.000   4.177   0.000   0.000   7.783   0.000   0.000
  0.000   0.000   0.000   4.177   0.000   0.000   7.783   0.000
  0.000   0.000   0.000   0.000   4.177   0.000   0.000   7.783
  0.000   0.000   7.783   0.000   0.000  14.510   0.000   0.000
  0.000   0.000   0.000   7.783   0.000   0.000  14.510   0.000
  0.000   0.000   0.000   0.000   7.783   0.000   0.000  14.510
 total augmentation occupancy for first ion, spin component:           1
  5.984  -2.301   0.000   0.000   0.000   0.000   0.000   0.000
 -2.301   0.973   0.000   0.000   0.000   0.000   0.000   0.000
  0.000   0.000   3.045   0.000   0.000  -0.692   0.000   0.000
  0.000   0.000   0.000   3.045   0.000   0.000  -0.692   0.000
  0.000   0.000   0.000   0.000   3.045   0.000   0.000  -0.692
  0.000   0.000  -0.692   0.000   0.000   0.167   0.000   0.000
  0.000   0.000   0.000  -0.692   0.000   0.000   0.167   0.000
  0.000   0.000   0.000   0.000  -0.692   0.000   0.000   0.167


------------------------ aborting loop because EDIFF is reached ----------------------------------------


    CHARGE:  cpu time    0.10: real time    0.10
    FORLOC:  cpu time    0.02: real time    0.02
    FORNL :  cpu time    0.52: real time    0.52
    STRESS:  cpu time    1.62: real time    1.63
    FORCOR:  cpu time    0.15: real time    0.15
    FORHAR:  cpu time    0.04: real time    0.04
    MIXING:  cpu time    0.00: real time    0.00

  FORCE on cell =-STRESS in cart. coord.  units (eV):
  Direction    XX          YY          ZZ          XY          YZ          ZX
  --------------------------------------------------------------------------------------
  Alpha Z    13.37151    13.37151    13.37151
  Ewald    -304.10825  -304.10825  -304.10825     0.00000     0.00000     0.00000
  Hartree    19.93332    19.93332    19.93332     0.00000     0.00000     0.00000
  E(xc)    -102.23793  -102.23793  -102.23793     0.00000     0.00000     0.00000
  Local    -117.20015  -117.20015  -117.20015     0.00000     0.00000     0.00000
  n-local   308.80675   308.80675   308.80675    -6.20485    -6.20485    -6.20485
  augment   -45.46249   -45.46249   -45.46249     0.00000     0.00000     0.00000
  Kinetic   226.89724   226.89724   226.89724   -10.51374   -10.51374   -10.51374
  Fock        0.00000     0.00000     0.00000     0.00000     0.00000     0.00000
  -------------------------------------------------------------------------------------
  Total       0.00000     0.00000     0.00000     0.00000     0.00000     0.00000
  in kB       0.00000     0.00000     0.00000     0.00000     0.00000     0.00000
  external pressure =        0.00 kB  Pullay stress =        0.00 kB


 VOLUME and BASIS-vectors are now :
 -----------------------------------------------------------------------------
  energy-cutoff  :      300.00
  volume of cell :      161.12
      direct lattice vectors                 reciprocal lattice vectors
     5.441492618  0.000000000  0.000000000     0.183773106  0.000000000  0.000000000
     0.000000000  5.441492618  0.000000000     0.000000000  0.183773106  0.000000000
     0.000000000  0.000000000  5.441492618     0.000000000  0.000000000  0.183773106

  length of vectors
     5.441492618  5.441492618  5.441492618     0.183773106  0.183773106  0.183773106


 FORCES acting on ions
    electron-ion (+dipol)            ewald-force                    non-local-force                 convergence-correction
 -----------------------------------------------------------------------------------------------
   -.205E-13 0.212E-12 -.258E-12   -.142E-13 -.355E-14 -.355E-14   -.359E-15 0.451E-16 -.418E-15   0.786E-16 0.541E-16 -.168E-14
   -.229E-13 0.411E-12 -.115E-12   -.142E-13 -.355E-14 -.355E-14   0.726E-16 -.520E-17 -.456E-15   0.571E-16 -.178E-15 -.155E-14
   -.143E-13 0.258E-12 0.641E-13   -.142E-13 -.355E-14 -.355E-14   -.191E-15 -.113E-15 -.238E-15   -.216E-15 -.711E-15 -.117E-14
   -.208E-13 0.280E-13 0.283E-12   -.142E-13 -.355E-14 -.355E-14   0.778E-16 0.267E-15 -.210E-15   -.303E-15 -.940E-15 -.137E-14
   -.177E-13 0.324E-13 0.478E-13   0.142E-13 0.274E-14 0.301E-14   -.125E-15 -.113E-15 0.201E-15   0.140E-14 0.242E-15 0.109E-14
   -.246E-13 0.158E-13 0.463E-13   0.142E-13 0.372E-14 0.391E-14   0.610E-16 -.255E-15 0.451E-15   0.140E-14 0.265E-14 -.102E-14
   -.152E-13 0.111E-12 -.752E-13   0.143E-13 0.339E-14 0.390E-14   0.103E-15 -.746E-16 0.513E-15   -.139E-14 -.156E-15 -.275E-15
   -.277E-13 -.900E-13 0.101E-12   0.143E-13 0.437E-14 0.360E-14   -.553E-16 0.503E-16 0.354E-15   -.136E-14 0.231E-14 0.196E-14
 -----------------------------------------------------------------------------------------------
   -.164E-12 0.979E-12 0.944E-13   0.804E-16 0.722E-17 0.206E-15   -.416E-15 -.198E-15 0.198E-15   -.338E-15 0.327E-14 -.401E-14
 
 
 POSITION                                       TOTAL-FORCE (eV/Angst)
 -----------------------------------------------------------------------------------
      4.76131      4.76131      4.76131         0.000000      0.000000      0.000000
      4.76131      2.04056      2.04056         0.000000      0.000000      0.000000
      2.04056      4.76131      2.04056         0.000000      0.000000      0.000000
      2.04056      2.04056      4.76131         0.000000      0.000000      0.000000
      0.68019      0.68019      0.68019         0.000000      0.000000      0.000000
      0.68019      3.40093      3.40093         0.000000      0.000000      0.000000
      3.40093      0.68019      3.40093         0.000000      0.000000      0.000000
      3.40093      3.40093      0.68019         0.000000      0.000000      0.000000
 -----------------------------------------------------------------------------------
    total drift:                                0.000000      0.000000      0.000000


--------------------------------------------------------------------------------------------------------



  FREE ENERGIE OF THE ION-ELECTRON SYSTEM (eV)
  ---------------------------------------------------
  free  energy   TOTEN  =       -45.27020633 eV

  energy  without entropy=      -45.27020633  energy(sigma->0) =      -45.27020633
 
 d Force = 0.0000000E+00[ 0.000E+00, 0.000E+00]  d Energy = 0.3183231E-11-0.318E-11
 d Force = 0.0000000E+00[ 0.000E+00, 0.000E+00]  d Ewald  = 0.2085196E-05-0.209E-05


--------------------------------------------------------------------------------------------------------


    POTLOK:  cpu time    0.23: real time    0.23


--------------------------------------------------------------------------------------------------------


 Quasi-Newton relaxation of ions (Broydens 2nd method)
  g(Force)  = 0.617E-59   g(Stress)= 0.919E-19

 retain information from N=  1 steps
 eigenvalues of (default step * inverse Hessian matrix)
  average eigenvalue of G=   0.5523
 eigenvalue spectrum of G is  0.5523


--------------------------------------------------------------------------------------------------------


  
 reached required accuracy - stopping structural energy minimisation
     LOOP+:  cpu time    4.60: real time    4.60
    4ORBIT:  cpu time    0.00: real time    0.00

 total amount of memory used by VASP on root node    84183. kBytes
========================================================================

   base      :      30000. kBytes
   nonl-proj :        367. kBytes
   fftplans  :      38956. kBytes
   grid      :      14172. kBytes
   one-center:         24. kBytes
   wavefun   :        664. kBytes
 
  
  
 General timing and accounting informations for this job:
 ========================================================
  
                  Total CPU time used (sec):       34.976
                            User time (sec):       34.936
                          System time (sec):        0.040
                         Elapsed time (sec):       35.036
  
                   Maximum memory used (kb):      100064.
                   Average memory used (kb):           0.
  
                          Minor page faults:        16805
                          Major page faults:            0
                 Voluntary context switches:            5
