ITEM: TIMESTEP
10000
ITEM: NUMBER OF ATOMS
64
ITEM: BOX BOUNDS xy xz yz pp pp pp
0 10.9 0
0 10.9 0
0 10.9 0
ITEM: ATOMS x y z 
    4.7756112712     4.8712758984     4.7797923383 
   10.1248762494     4.7488083828     4.6923133819 
    4.7472313234    10.2265398917     4.8077942793 
   10.2362014778    10.2839245174     4.8544438163 
    4.7651348321     4.8364455960    10.2471547166 
   10.2249457690     4.6458314222    10.2255515112 
    4.6786833134    10.2665787400    10.1712545814 
   10.2066355720    10.1704461479    10.2872218690 
    4.8518615609     2.1554777274     2.0888316381 
   10.2587478494     2.0037921301     2.0168591053 
    4.7328981139     7.4786999998     1.9049594842 
   10.2223608434     7.4828199462     2.1191574440 
    4.8778363649     2.1348065275     7.4828721821 
   10.2713913824     2.0534327130     7.5659815408 
    4.8236025481     7.4905493245     7.5231791651 
   10.1793365261     7.5352763203     7.4162958263 
    1.9857201271     4.7390786895     1.9876905424 
    7.5354897192     4.8656061046     1.9299924918 
    2.0711883433    10.1497198367     2.1581320338 
    7.4538904516    10.2842908580     2.1937606449 
    2.0179550255     4.7358455252     7.3688283847 
    7.5175782014     4.7595889268     7.4389613426 
    2.0843801242    10.2019130986     7.4739776013 
    7.4178935608    10.2087373440     7.4953816466 
    2.0498177456     1.9632685642     4.7118686094 
    7.5243653761     2.0551781820     4.8330450004 
    2.0604963835     7.4099926959     4.7759324945 
    7.4370172826     7.5424591496     4.8210017923 
    2.0436633117     2.0843175173    10.1580235042 
    7.4532940723     1.8771334885    10.2456121223 
    2.0231868103     7.4386523964    10.2195079232 
    7.5838952225     7.5053104166    10.1767038355 
    0.8036240028     0.5980360386     0.7242542714 
    6.0635483538     0.6320874202     0.7827970040 
    0.6050120776     6.1237805272     0.6765305128 
    6.0505492879     6.2534827898     0.6307942690 
    0.7722309453     0.7653010631     6.1724271630 
    6.1305696948     0.6856071236     6.1350774242 
    0.5423616701     6.1214318045     6.0274808096 
    6.1256890266     6.2092084210     6.1048959178 
    0.6563265883     3.4020409192     3.3717490894 
    6.1315595649     3.5198533502     3.4175038065 
    0.6583039888     8.8059677520     3.5594425144 
    6.0555476521     8.8518057216     3.3929100222 
    0.7828269667     3.4237996568     8.8279792246 
    6.1148885652     3.4606252932     8.9469448948 
    0.6169978164     8.8807130615     8.8308039254 
    6.1299067737     8.8012512748     8.9379553077 
    3.5144158302     0.6697990652     3.4042805056 
    8.8974024737     0.7633835603     3.4373288883 
    3.3821465816     6.0853001299     3.2996032117 
    8.8122226420     6.1339808319     3.4170988794 
    3.4136488867     0.7403003887     8.7918592226 
    8.8296276979     0.6167982981     8.9150828180 
    3.4016674657     6.1015428638     8.8309942127 
    8.9033376993     6.0826736071     8.8659523638 
    3.4473842402     3.3818170460     0.6501157268 
    8.8706908272     3.2489401573     0.6232762820 
    3.3028707492     8.8008741499     0.6486700717 
    8.8939711531     8.8695832125     0.7649557760 
    3.4815916394     3.3974434316     6.0416895998 
    8.9079243838     3.4167900188     6.1191230891 
    3.4659537957     8.7877354161     6.1626001273 
    8.7980142041     8.9622475263     6.1157402189 
ITEM: TIMESTEP
10001
ITEM: NUMBER OF ATOMS
64
ITEM: BOX BOUNDS xy xz yz pp pp pp
0 10.9 0
0 10.9 0
0 10.9 0
ITEM: ATOMS x y z 
    4.7735232208     4.8696402358     4.7816081220 
   10.1243692261     4.7454030522     4.6895662894 
    4.7517226465    10.2221326904     4.8061091293 
   10.2319209509    10.2839101476     4.8523571182 
    4.7666610103     4.8369907195    10.2458543842 
   10.2206354665     4.6539106285    10.2258496925 
    4.6829354367    10.2675372342    10.1722111071 
   10.2078702604    10.1671678510    10.2816252487 
    4.8535736202     2.1534617340     2.0868815517 
   10.2543987860     2.0062221977     2.0243633344 
    4.7340476217     7.4785440311     1.9026422195 
   10.2258758369     7.4826246534     2.1171235355 
    4.8731604277     2.1328952373     7.4865392072 
   10.2714150799     2.0529061144     7.5659265827 
    4.8230359172     7.4893376609     7.5228950727 
   10.1790279287     7.5360734125     7.4153377369 
    1.9889831936     4.7397492433     1.9928583819 
    7.5365123211     4.8618281688     1.9340200309 
    2.0706867012    10.1501506962     2.1591550806 
    7.4488184418    10.2837901227     2.1928434256 
    2.0163825278     4.7385042001     7.3716531234 
    7.5179422340     4.7579071964     7.4370103272 
    2.0840281798    10.1951564569     7.4686656197 
    7.4167829797    10.2094610486     7.4931423127 
    2.0491420276     1.9659567143     4.7084959220 
    7.5199026431     2.0526011710     4.8310311380 
    2.0618683540     7.4119687507     4.7805890506 
    7.4373036715     7.5395084243     4.8226303837 
    2.0427399193     2.0803266191    10.1622629296 
    7.4544726458     1.8756258402    10.2479628510 
    2.0299227881     7.4371737943    10.2198962512 
    7.5815226604     7.5090978617    10.1797834771 
    0.8011309463     0.5986860466     0.7214435652 
    6.0664849079     0.6383838233     0.7850686366 
    0.6072174208     6.1209965993     0.6822824540 
    6.0506109079     6.2522209760     0.6317051299 
    0.7695047882     0.7662534624     6.1743855419 
    6.1309752000     0.6853607961     6.1374485617 
    0.5481636932     6.1239188837     6.0321383730 
    6.1286320985     6.2102071370     6.0999817328 
    0.6577138702     3.4007987055     3.3725849407 
    6.1297964760     3.5219599499     3.4118468465 
    0.6541062040     8.8076096307     3.5532496448 
    6.0532941754     8.8496693985     3.3900410163 
    0.7807279654     3.4261797374     8.8272831773 
    6.1128470715     3.4655079891     8.9461294262 
    0.6195839356     8.8787850153     8.8314984225 
    6.1288373226     8.8051234585     8.9364205921 
    3.5122679684     0.6693404567     3.4038479578 
    8.8974095304     0.7688693879     3.4398162889 
    3.3848720906     6.0839507879     3.3033727696 
    8.8163455181     6.1347306655     3.4161675513 
    3.4134563767     0.7363614646     8.7924313289 
    8.8323408584     0.6164039375     8.9126084783 
    3.4035874689     6.1000772653     8.8368106082 
    8.9025937885     6.0859979119     8.8617999836 
    3.4457296938     3.3799806668     0.6476134662 
    8.8665601771     3.2505423220     0.6249088419 
    3.3065255246     8.8041679318     0.6456301512 
    8.8952695924     8.8663378422     0.7654043733 
    3.4829694853     3.3999682907     6.0430848495 
    8.9047262647     3.4148035602     6.1187299062 
    3.4625917464     8.7893953105     6.1577581520 
    8.8019422068     8.9598466804     6.1176165942 
ITEM: TIMESTEP
10002
ITEM: NUMBER OF ATOMS
64
ITEM: BOX BOUNDS xy xz yz pp pp pp
0 10.9 0
0 10.9 0
0 10.9 0
ITEM: ATOMS x y z 
    4.7714302003     4.8678941054     4.7831731788 
   10.1241443247     4.7419518381     4.6868711465 
    4.7563515706    10.2176063413     4.8044350297 
   10.2277007522    10.2839861847     4.8501544285 
    4.7680815957     4.8373687445    10.2444848484 
   10.2163843608     4.6622020746    10.2260237639 
    4.6873367484    10.2682279836    10.1735033940 
   10.2092849108    10.1641056464    10.2759774237 
    4.8549456182     2.1511484919     2.0848413972 
   10.2501494880     2.0085797489     2.0317968741 
    4.7349491659     7.4787211547     1.9009893321 
   10.2293669152     7.4824696555     2.1150752099 
    4.8681481569     2.1308151268     7.4902011844 
   10.2712360724     2.0523373082     7.5657602774 
    4.8223031366     7.4880271869     7.5227167611 
   10.1786468769     7.5367835541     7.4145464427 
    1.9923821223     4.7403504571     1.9979753321 
    7.5373186814     4.8577636926     1.9380891136 
    2.0702160099    10.1505564600     2.1600849424 
    7.4439856144    10.2830580759     2.1916005763 
    2.0149580172     4.7413871326     7.3745215262 
    7.5181656649     4.7563496993     7.4352885087 
    2.0836158706    10.1884396414     7.4634381136 
    7.4157980153    10.2102134080     7.4911622095 
    2.0486946223     1.9691150879     4.7051059248 
    7.5152843856     2.0502182125     4.8287700834 
    2.0633250603     7.4140144304     4.7852528540 
    7.4378353378     7.5366721749     4.8238197778 
    2.0420617687     2.0760196192    10.1667769502 
    7.4554783684     1.8745533766    10.2503332634 
    2.0363195205     7.4357349475    10.2200190505 
    7.5790646649     7.5128439558    10.1832078042 
    0.7983575362     0.5995358203     0.7184993119 
    6.0694445072     0.6447005180     0.7871095342 
    0.6095080814     6.1181346273     0.6880042792 
    6.0513896555     6.2505556686     0.6323772626 
    0.7665148163     0.7668392373     6.1763618895 
    6.1313697951     0.6851742124     6.1398206073 
    0.5542691047     6.1262961974     6.0369830023 
    6.1316120585     6.2108724115     6.0953969599 
    0.6591569226     3.3994692535     3.3734996500 
    6.1284344582     3.5240604093     3.4062917822 
    0.6499907767     8.8094363233     3.5468231654 
    6.0510467480     8.8474313455     3.3872595331 
    0.7782628749     3.4285941935     8.8266068817 
    6.1111803501     3.4702347036     8.9451443602 
    0.6224379243     8.8766684370     8.8322057496 
    6.1277192724     8.8093324315     8.9346552289 
    3.5098987604     0.6689758625     3.4033298637 
    8.8973550985     0.7740971275     3.4424252951 
    3.3876342297     6.0827875688     3.3072803257 
    8.8203270746     6.1357039900     3.4152029234 
    3.4132972004     0.7324783335     8.7929400050 
    8.8352160833     0.6159872971     8.9098710664 
    3.4053893043     6.0986488577     8.8424476229 
    8.9018418636     6.0893656901     8.8574840544 
    3.4439449714     3.3783266460     0.6452157209 
    8.8622855783     3.2524600668     0.6266872726 
    3.3103958158     8.8077890294     0.6426130805 
    8.8962565420     8.8630910098     0.7659517270 
    3.4841150188     3.4024701739     6.0445752114 
    8.9014650769     3.4126326720     6.1185580570 
    3.4590232705     8.7911308212     6.1528190296 
    8.8058956114     8.9572035466     6.1195628230 
ITEM: TIMESTEP
10003
ITEM: NUMBER OF ATOMS
64
ITEM: BOX BOUNDS xy xz yz pp pp pp
0 10.9 0
0 10.9 0
0 10.9 0
ITEM: ATOMS x y z 
    4.7693576354     4.8660428009     4.7844796511 
   10.1242187809     4.7384764080     4.6842627434 
    4.7610919452    10.2129892781     4.8027717035 
   10.2235554659    10.2841554533     4.8478412252 
    4.7693909817     4.8375735444    10.2430683509 
   10.2122021119     4.6706752824    10.2260798363 
    4.6918821862    10.2686655595    10.1751298923 
   10.2108688094    10.1612619940    10.2703028699 
    4.8559564625     2.1485556372     2.0827188179 
   10.2460175885     2.0108668326     2.0391142297 
    4.7355927332     7.4792247688     1.9000043918 
   10.2328188905     7.4823493263     2.1130154787 
    4.8628197312     2.1285753004     7.4938493918 
   10.2708495100     2.0517362558     7.5654847611 
    4.8214028770     7.4866272381     7.5226318123 
   10.1782106648     7.5374033882     7.4139321902 
    1.9959133164     4.7408696892     2.0030303895 
    7.5379067925     4.8534389742     1.9421864722 
    2.0697727236    10.1509397750     2.1608988820 
    7.4394237429    10.2821071997     2.1900461821 
    2.0136987746     4.7444846265     7.3774348834 
    7.5182438762     4.7549296801     7.4337969932 
    2.0831397238    10.1817951122     7.4583165643 
    7.4149570771    10.2109858977     7.4894461539 
    2.0484725145     1.9727236473     4.7017316810 
    7.5105125859     2.0480501725     4.8262747601 
    2.0648473027     7.4161350907     4.7898799137 
    7.4386296960     7.5339771186     4.8245466731 
    2.0416125482     2.0714199151    10.1715257016 
    7.4563192437     1.8739251509    10.2526960709 
    2.0423519465     7.4343373719    10.2198950548 
    7.5765255922     7.5165335126    10.1869494711 
    0.7952964379     0.6005772536     0.7154484355 
    6.0724183605     0.6510049255     0.7889050595 
    0.6118951789     6.1152089840     0.6936711539 
    6.0528894235     6.2484856543     0.6328149207 
    0.7632816215     0.7670566601     6.1783294888 
    6.1317344114     0.6850494153     6.1421816733 
    0.5606389584     6.1285428290     6.0419878269 
    6.1346010993     6.2111874313     6.0911713014 
    0.6606543335     3.3980636076     3.3744884906 
    6.1274651497     3.5261442598     3.4008645035 
    0.6459841967     8.8114357002     3.5402027520 
    6.0488249348     8.8450840260     3.3845738454 
    0.7754401439     3.4310280151     8.8259782826 
    6.1098967371     3.4747760311     8.9439863209 
    0.6255599370     8.8743516104     8.8329158836 
    6.1265596624     8.8138599669     8.9326642231 
    3.5073319850     0.6687002217     3.4027360115 
    8.8972122355     0.7790270955     3.4451451096 
    3.3904252529     6.0818287831     3.3113192335 
    8.8241577718     6.1368952204     3.4142039200 
    3.4131564098     0.7286464055     8.7933858316 
    8.8382349203     0.6155513761     8.9068821714 
    3.4070733114     6.0972626143     8.8478757120 
    8.9010654148     6.0927828739     8.8530208736 
    3.4420442106     3.3768621136     0.6429364340 
    8.8578914081     3.2546947386     0.6286105799 
    3.3144746474     8.8117303953     0.6396348131 
    8.8969355933     8.8598651377     0.7665901476 
    3.4850099833     3.4049357126     6.0461676864 
    8.8981501012     3.4102753634     6.1185948116 
    3.4552851800     8.7929237374     6.1478024065 
    8.8098471569     8.9543298383     6.1215669029 
ITEM: TIMESTEP
10004
ITEM: NUMBER OF ATOMS
64
ITEM: BOX BOUNDS xy xz yz pp pp pp
0 10.9 0
0 10.9 0
0 10.9 0
ITEM: ATOMS x y z 
    4.7673311663     4.8640915662     4.7855215407 
   10.1246064410     4.7349978977     4.6817747577 
    4.7659166534    10.2083107295     4.8011188938 
   10.2194987968    10.2844188752     4.8454236582 
    4.7705849306     4.8375996131    10.2416266200 
   10.2080974071     4.6792996221    10.2260249792 
    4.6965657386    10.2688666006    10.1770864662 
   10.2126101088    10.1586375932    10.2646260084 
    4.8565875650     2.1457032023     2.0805228202 
   10.2420190506     2.0130865350     2.0462712514 
    4.7359732400     7.4800434420     1.8996843586 
   10.2362166404     7.4822578802     2.1109467422 
    4.8571970672     2.1261860246     7.4974750288 
   10.2702515454     2.0511126254     7.5651023799 
    4.8203345871     7.4851480128     7.5226273192 
   10.1777379444     7.5379292828     7.4135044651 
    1.9995725518     4.7412952667     2.0080135323 
    7.5382766820     4.8488819731     1.9462993588 
    2.0693526338    10.1513045363     2.1615738567 
    7.4351620185    10.2809499437     2.1881949901 
    2.0126210617     4.7477850858     7.3803955946 
    7.5181735651     4.7536591357     7.4325360218 
    2.0825960186    10.1752550017     7.4533221704 
    7.4142782399    10.2117701834     7.4879968891 
    2.0484711685     1.9767592189     4.6984074501 
    7.5055898447     2.0461166547     4.8235592122 
    2.0664149771     7.4183349293     4.7944263302 
    7.4397017664     7.5314475927     4.8247915701 
    2.0413746475     2.0665530297    10.1764678528 
    7.4570056640     1.8737479306    10.2550232888 
    2.0479981758     7.4329838753    10.2195449067 
    7.5739096001     7.5201524323    10.1909782587 
    0.7919422022     0.6018004817     0.7123184711 
    6.0753982316     0.6572641402     0.7904417608 
    0.6143890018     6.1122341457     0.6992588278 
    6.0551065846     6.2460139848     0.6330272295 
    0.7598274821     0.7669066485     6.1802609771 
    6.1320504862     0.6849881548     6.1445200085 
    0.5672342529     6.1306403942     6.0471263953 
    6.1375723032     6.2111378461     6.0873311667 
    0.6622046280     3.3965934768     3.3755455794 
    6.1268766287     3.5281990032     3.3955894469 
    0.6421121246     8.8135957125     3.5334284797 
    6.0466489931     8.8426214932     3.3819912823 
    0.7722707837     3.4334656434     8.8254245901 
    6.1090014118     3.4791034408     8.9426519955 
    0.6289485387     8.8718240560     8.8336189352 
    6.1253661297     8.8186853406     8.9304543888 
    3.5045918712     0.6685077754     3.4020770330 
    8.8969548744     0.7836216667     3.4479643706 
    3.3932366521     6.0810915200     3.3154822987 
    8.8278294463     6.1382963088     3.4131695801 
    3.4130197534     0.7248595406     8.7937712009 
    8.8413777920     0.6151004091     8.9036556089 
    3.4086401435     6.0959232241     8.8530666694 
    8.9002477038     6.0962554751     8.8484279172 
    3.4400420497     3.3755929820     0.6407891593 
    8.8534029718     3.2572465877     0.6306770841 
    3.3187530375     8.8159820468     0.6367104248 
    8.8973126860     8.8566830402     0.7673108907 
    3.4856375592     3.4073524739     6.0478688890 
    8.8947904958     3.4077313603     6.1188262291 
    3.4514157412     8.7947562629     6.1427285022 
    8.8137699407     8.9512390716     6.1236160339 
ITEM: TIMESTEP
10005
ITEM: NUMBER OF ATOMS
64
ITEM: BOX BOUNDS xy xz yz pp pp pp
0 10.9 0
0 10.9 0
0 10.9 0
ITEM: ATOMS x y z 
    4.7653763372     4.8620454996     4.7862947947 
   10.1253176590     4.7315368433     4.6794394637 
    4.7707978806    10.2036004242     4.7994764414 
   10.2155435353    10.2847754627     4.8429085744 
    4.7716606162     4.8374420682    10.2401806277 
   10.2040779817     4.6880445025    10.2258671108 
    4.7013804935    10.2688497086    10.1793663862 
   10.2144960184    10.1562314577    10.2589709594 
    4.8568230072     2.1426133955     2.0782637034 
   10.2381680639     2.0152427352     2.0532255142 
    4.7360904288     7.4811610016     1.9000196857 
   10.2395452590     7.4821894472     2.1088707982 
    4.8513036625     2.1236586486     7.5010691943 
   10.2694394207     2.0504757307     7.5646156185 
    4.8190985720     7.4836004627     7.5226900731 
   10.1772485565     7.5383573551     7.4132718538 
    2.0033550271     4.7416165976     2.0129157190 
    7.5384304078     4.8441222585     1.9504155471 
    2.0689509781    10.1516558223     2.1620867556 
    7.4312268880    10.2795985744     2.1860622377 
    2.0117399898     4.7512750046     7.3834071949 
    7.5179528006     4.7525487337     7.4315049320 
    2.0819808628    10.1688508766     7.4484756889 
    7.4137790320    10.2125582903     7.4868150410 
    2.0486847965     1.9811957310     4.6951683154 
    7.5005193667     2.0444358384     4.8206384403 
    2.0680072432     7.4206167906     4.7988486996 
    7.4410637989     7.5291051451     4.8245390838 
    2.0413295022     2.0614462884    10.1815610834 
    7.4575501509     1.8740263558    10.2572864631 
    2.0532396221     7.4316785363    10.2189909467 
    7.5712206426     7.5236877877    10.1952613433 
    0.7882912031     0.6031940386     0.7091373732 
    6.0783764655     0.6634451824     0.7917075008 
    0.6169988961     6.1092246078     0.7047437822 
    6.0580300992     6.2431478913     0.6330280501 
    0.7561760109     0.7663926141     6.1821287268 
    6.1323001488     0.6849918396     6.1468241180 
    0.5740161958     6.1325732262     6.0523727654 
    6.1405001201     6.2107121326     6.0838993035 
    0.6638062011     3.3950711686     3.3766639198 
    6.1266534939     3.5302100800     3.3904895643 
    0.6383991154     8.8159045190     3.5265404528 
    6.0445398131     8.8400395185     3.3795182742 
    0.7687681202     3.4358913217     8.8249718846 
    6.1084964237     3.4831894164     8.9411383693 
    0.6326006872     8.8690766818     8.8343053047 
    6.1241467923     8.8237854438     8.9280342655 
    3.5017028209     0.6683922132     3.4013642249 
    8.8965581011     0.7878456923     3.4508711199 
    3.3960591967     6.0805915327     3.3197617626 
    8.8313353662     6.1398967734     3.4120991440 
    3.4128737452     0.7211101654     8.7941003104 
    8.8446242041     0.6146397057     8.9002072670 
    3.4100907870     6.0946350823     8.8579938537 
    8.8993719405     6.0997894060     8.8437237438 
    3.4379534564     3.3745239058     0.6387869528 
    8.8488463242     3.2601147024     0.6328843345 
    3.3232199898     8.8205310538     0.6338541153 
    8.8973959395     8.8535677427     0.7681043405 
    3.4859825171     3.4097090615     6.0496849168 
    8.8913952353     3.4050021723     6.1192373393 
    3.4474543161     8.7966112602     6.1376179676 
    8.8176376716     8.9479464733     6.1256966606 
ITEM: TIMESTEP
10006
ITEM: NUMBER OF ATOMS
64
ITEM: BOX BOUNDS xy xz yz pp pp pp
0 10.9 0
0 10.9 0
0 10.9 0
ITEM: ATOMS x y z 
    4.7635182857     4.8599094641     4.7867973744 
   10.1263592656     4.7281131355     4.6772874856 
    4.7757073904    10.1988882949     4.7978443449 
   10.2117015328    10.2852223333     4.8403035283 
    4.7726166489     4.8370966556    10.2387503577 
   10.2001506437     4.6968795574    10.2256148799 
    4.7063187089    10.2686353219    10.1819603467 
   10.2165129966    10.1540409999    10.2533612945 
    4.8566496795     2.1393103370     2.0759529447 
   10.2344769523     2.0173398517     2.0599366789 
    4.7359486293     7.4825567581     1.9009945524 
   10.2427902114     7.4821381525     2.1067888637 
    4.8451644245     2.1210055101     7.5046228694 
   10.2684115558     2.0498344715     7.5640270304 
    4.8176960627     7.4819961806     7.5228067366 
   10.1767633366     7.5386835160     7.4132419083 
    2.0072554141     4.7418242770     2.0177288796 
    7.5383720345     4.8391909326     1.9545233392 
    2.0685625503    10.1519998198     2.1624146419 
    7.4276419302    10.2780650640     2.1836635091 
    2.0110693919     4.7549389780     7.3864743534 
    7.5175810753     4.7516077392     7.4307021258 
    2.0812902857    10.1626135013     7.4437972754 
    7.4134762272    10.2133427647     7.4858990851 
    2.0491066125     1.9860044658     4.6920497951 
    7.4953049589     2.0430243160     4.8175282427 
    2.0696026944     7.4229820196     4.8031045077 
    7.4427249323     7.5269681783     4.8237782144 
    2.0414579223     2.0561284985    10.1867625635 
    7.4579670771     1.8747631015    10.2594569193 
    2.0580611010     7.4304266276    10.2182569877 
    7.5684624872     7.5271279010    10.1997635896 
    0.7843415677     0.6047450413     0.7059333185 
    6.0813460017     0.6695152705     0.7926915757 
    0.6197331736     6.1061948094     0.7101033638 
    6.0616417580     6.2398985695     0.6328357061 
    0.7523518016     0.7655203052     6.1839052289 
    6.1324663993     0.6850614905     6.1490828782 
    0.5809464436     6.1343284987     6.0577015655 
    6.1433608017     6.2099019294     6.0808944744 
    0.6654572536     3.3935095131     3.3778354647 
    6.1267769810     3.5321608940     3.3855863065 
    0.6348683680     8.8183505813     3.5195784432 
    6.0425188492     8.8373357062     3.3771604172 
    0.7649475407     3.4382894239     8.8246447551 
    6.1083807372     3.4870075954     8.9394429577 
    0.6365117129     8.8661019350     8.8349658252 
    6.1229101197     8.8291349228     8.9254140178 
    3.4986891341     0.6683468148     3.4006093765 
    8.8959984004     0.7916668852     3.4538527526 
    3.3988829832     6.0803431261     3.3241492982 
    8.8346702759     6.1416837541     3.4109921242 
    3.4127057181     0.7173894085     8.7943791217 
    8.8479529654     0.6141754784     8.8965549380 
    3.4114265817     6.0934022873     8.8626324157 
    8.8984214586     6.1033903060     8.8389278974 
    3.4357935600     3.3736582446     0.6369422588 
    8.8442480907     3.2632969487     0.6352290318 
    3.3278625188     8.8253615605     0.6310792394 
    8.8971954765     8.8505422854     0.7689601840 
    3.4860313674     3.4119952145     6.0516212300 
    8.8879730429     3.4020911418     6.1198123274 
    3.4434409799     8.7984724756     6.1324917443 
    8.8214249169     8.9444688572     6.1277945355 
ITEM: TIMESTEP
10007
ITEM: NUMBER OF ATOMS
64
ITEM: BOX BOUNDS xy xz yz pp pp pp
0 10.9 0
0 10.9 0
0 10.9 0
ITEM: ATOMS x y z 
    4.7617814358     4.8576880038     4.7870293047 
   10.1277346024     4.7247459933     4.6753475933 
    4.7806168037    10.1942041880     4.7962228032 
   10.2079836859    10.2857547432     4.8376167774 
    4.7734530837     4.8365597558    10.2373545891 
   10.1963213023     4.7057748254    10.2252775453 
    4.7113719017    10.2682455648    10.1848565067 
   10.2186469413    10.1520621198    10.2478197933 
    4.8560573937     2.1358197555     2.0736030447 
   10.2309560939     2.0193825853     2.0663668270 
    4.7355563997     7.4842058554     1.9025872141 
   10.2459374865     7.4820982013     2.1047016072 
    4.8388054837     2.1182398266     7.5081269084 
   10.2671676337     2.0491972744     7.5633391687 
    4.8161292767     7.4803472845     7.5229639995 
   10.1763039000     7.5389035335     7.4134210168 
    2.0112679047     4.7419101873     2.0224459002 
    7.5381075917     4.8341205254     1.9586115803 
    2.0681818121    10.1523437408     2.1625349982 
    7.4244277684    10.2763610173     2.1810146174 
    2.0106217008     4.7587597351     7.3896028419 
    7.5170593498     4.7508439486     7.4301250462 
    2.0805203464    10.1565726031     7.4393063238 
    7.4133856425    10.2141168261     7.4852453230 
    2.0497290655     1.9911543210     4.6890874480 
    7.4899510415     2.0418969338     4.8142450683 
    2.0711795281     7.4254303692     4.8071525086 
    7.4446909059     7.5250516562     4.8225025679 
    2.0417403953     2.0506296351    10.1920294278 
    7.4582723764     1.8759590383    10.2615060277 
    2.0624508979     7.4292344913    10.2173680777 
    7.5656387528     7.5304624069    10.2044478671 
    0.7800931043     0.6064393944     0.7027345047 
    6.0843003757     0.6754421106     0.7933848254 
    0.6225990388     6.1031590677     0.7153159049 
    6.0659165450     6.2362808525     0.6324725880 
    0.7483800844     0.7642976484     6.1855634714 
    6.1325332769     0.6851976980     6.1512856472 
    0.5879873176     6.1358962870     6.0630880310 
    6.1461327746     6.2087023294     6.0783311909 
    0.6671557351     3.3919217756     3.3790512007 
    6.1272251145     3.5340328952     3.3808996167 
    0.6315415070     8.8209227280     3.5125815458 
    6.0406080388     8.8345095937     3.3749225547 
    0.7608262436     3.4406447521     8.8244659771 
    6.1086502944     3.4905329054     8.9375640260 
    0.6406752959     8.8628939525     8.8355918924 
    6.1216647931     8.8347063444     8.9226053217 
    3.4955747443     0.6683645823     3.3998246040 
    8.8952538680     0.7950561660     3.4568959544 
    3.4016974940     6.0803590477     3.3286360196 
    8.8378304294     6.1436420960     3.4098483556 
    3.4125038634     0.7136872531     8.7946152881 
    8.8513424154     0.6137146663     8.8927181377 
    3.4126492420     6.0922286456     8.8669595247 
    8.8973798871     6.1070633774     8.8340608098 
    3.4335774893     3.3729980290     0.6352667945 
    8.8396352887     3.2667899167     0.6377069598 
    3.3326657080     8.8304548402     0.6283983608 
    8.8967232432     8.8476295126     0.7698675712 
    3.4857725024     3.4142019000     6.0536825436 
    8.8845323184     3.3990034754     6.1205347186 
    3.4394161211     8.8003247411     6.1273709276 
    8.8251073411     8.9408244703     6.1298948076 
ITEM: TIMESTEP
10008
ITEM: NUMBER OF ATOMS
64
ITEM: BOX BOUNDS xy xz yz pp pp pp
0 10.9 0
0 10.9 0
0 10.9 0
ITEM: ATOMS x y z 
    4.7601891992     4.8553852737     4.7869927030 
   10.1294436170     4.7214539480     4.6736465410 
    4.7854978745    10.1895775816     4.7946122371 
   10.2043999293    10.2863661423     4.8348572622 
    4.7741714108     4.8358283937    10.2360106980 
   10.1925949994     4.7147009236    10.2248648521 
    4.7165309506    10.2677040718    10.1880405551 
   10.2208833723    10.1502893013    10.2423682109 
    4.8550389711     2.1321686503     2.0712273346 
   10.2276138565     2.0213756673     2.0724807666 
    4.7349260735     7.4860797260     1.9047704514 
   10.2489737465     7.4820639657     2.1026091936 
    4.8322539954     2.1153755751     7.5115720400 
   10.2657086828     2.0485720365     7.5625545220 
    4.8144014657     7.4786663017     7.5231487165 
   10.1758924041     7.5390131144     7.4138142819 
    2.0153862546     4.7418675901     2.0270606012 
    7.5376450102     4.8289448571     1.9626696814 
    2.0678030018    10.1526957323     2.1624259705 
    7.4216020178    10.2744976337     2.1781315129 
    2.0104078305     4.7627181967     7.3927994729 
    7.5163900903     4.7502636318     7.4297701638 
    2.0796672531    10.1507566432     7.4350213091 
    7.4135219452    10.2148745033     7.4848478732 
    2.0505440431     1.9966120817     4.6863164783 
    7.4844626697     2.0410666378     4.8108058814 
    2.0727157160     7.4279599621     4.8109530816 
    7.4469638351     7.5233668857     4.8207105181 
    2.0421573611     2.0449805367    10.1973192373 
    7.4584832491     1.8776133830    10.2634054828 
    2.0664008048     7.4281093663    10.2163502530 
    7.5627529654     7.5336823033    10.2092753869 
    0.7755472325     0.6082620118     0.6995689446 
    6.0872337092     0.6811942031     0.7937797323 
    0.6256025346     6.1001315190     0.7203608297 
    6.0708231035     6.2323127919     0.6319646524 
    0.7442863942     0.7627345921     6.1870773040 
    6.1324860163     0.6854005859     6.1534223662 
    0.5951019968     6.1372695698     6.0685080215 
    6.1487969401     6.2071121171     6.0762195115 
    0.6688992947     3.3903215579     3.3803012529 
    6.1279728951     3.5358057199     3.3764479273 