unknown system                          
           1
    10.900000    0.000000    0.000000
     0.000000   10.900000    0.000000
     0.000000    0.000000   10.900000
   Si
  64
Direct configuration=     1
   0.43778227  0.43735192  0.43766052
   0.93747429  0.43720612  0.43780808
   0.43779963  0.93774045  0.43780637
   0.93746834  0.93763876  0.43740445
   0.43723716  0.43777239  0.93773437
   0.93760162  0.43744144  0.93751841
   0.43759357  0.93747279  0.93766991
   0.93748732  0.93807250  0.93748502
   0.43744350  0.18728932  0.18727424
   0.93775911  0.18769709  0.18743909
   0.43757666  0.68757931  0.18741124
   0.93770868  0.68740001  0.18791469
   0.43719794  0.18741634  0.68733044
   0.93763970  0.18741664  0.68733785
   0.43780851  0.68750514  0.68772640
   0.93742560  0.68737317  0.68771223
   0.18771006  0.43749967  0.18742263
   0.68726856  0.43741803  0.18732613
   0.18771293  0.93737313  0.18772406
   0.68753099  0.93718003  0.18748509
   0.18770035  0.43734826  0.68766216
   0.68750913  0.43744622  0.68727713
   0.18763363  0.93788479  0.68754469
   0.68773152  0.93724556  0.68760221
   0.18740594  0.18738957  0.43732699
   0.68737792  0.18744182  0.43712794
   0.18730966  0.68742139  0.43737896
   0.68770900  0.68763168  0.43738263
   0.18754167  0.18747239  0.93782927
   0.68731433  0.18750699  0.93738164
   0.18754183  0.68761815  0.93750618
   0.68717137  0.68754804  0.93739374
   0.06252164  0.06223418  0.06208676
   0.56226934  0.06229040  0.06212449
   0.06256887  0.56239939  0.06277051
   0.56239398  0.56251342  0.06272289
   0.06256619  0.06254560  0.56280664
   0.56250903  0.06257861  0.56217330
   0.06260634  0.56236969  0.56248500
   0.56265183  0.56276903  0.56240218
   0.06246244  0.31203809  0.31239349
   0.56243224  0.31232565  0.31261940
   0.06209142  0.81267626  0.31262730
   0.56212425  0.81287149  0.31251830
   0.06239253  0.31230334  0.81247876
   0.56232271  0.31245210  0.81263213
   0.06257502  0.81242347  0.81237878
   0.56248897  0.81235441  0.81263907
   0.31262274  0.06258794  0.31245445
   0.81214012  0.06258515  0.31235609
   0.31252985  0.56279756  0.31245199
   0.81260021  0.56294896  0.31224577
   0.31248159  0.06241308  0.81247153
   0.81231673  0.06252809  0.81257412
   0.31251319  0.56228663  0.81215969
   0.81251247  0.56252474  0.81215480
   0.31262213  0.31215199  0.06221949
   0.81252909  0.31271095  0.06254746
   0.31242951  0.81259324  0.06299582
   0.81254558  0.81261206  0.06252236
   0.31237415  0.31262706  0.56259186
   0.81241379  0.31269395  0.56274180
   0.31280371  0.81238247  0.56241162
   0.81241556  0.81261189  0.56263734
Direct configuration=     2
   0.43806415  0.43720420  0.43782091
   0.93744856  0.43691257  0.43811558
   0.43809877  0.93798076  0.43811237
   0.93743645  0.93777769  0.43730921
   0.43697458  0.43804451  0.93796845
   0.93770309  0.43738311  0.93753671
   0.43768674  0.93744536  0.93783955
   0.93747456  0.93864415  0.93746981
   0.43738718  0.18707878  0.18704860
   0.93801783  0.18789366  0.18737797
   0.43765324  0.68765865  0.18732273
   0.93791719  0.68730032  0.18832867
   0.43689621  0.18733274  0.68716100
   0.93777901  0.18733334  0.68717594
   0.43811675  0.68751022  0.68795252
   0.93735139  0.68724651  0.68792403
   0.18792009  0.43749904  0.18734543
   0.68703738  0.43733623  0.18715266
   0.18792537  0.93724649  0.18794808
   0.68756172  0.93686044  0.18747004
   0.18790028  0.43719656  0.68782416
   0.68751798  0.43739253  0.68705460
   0.18776728  0.93826888  0.68758927
   0.68796255  0.93699149  0.68770432
   0.18731203  0.18727921  0.43715427
   0.68725611  0.18738386  0.43675639
   0.18711944  0.68734305  0.43725807
   0.68791770  0.68776357  0.43726521
   0.18758327  0.18744465  0.93815794
   0.68712883  0.18751408  0.93726351
   0.18758372  0.68773612  0.93751242
   0.68684327  0.68759587  0.93728768
   0.06254348  0.06196866  0.06167431
   0.56203919  0.06208093  0.06174946
   0.06263778  0.56229889  0.06304072
   0.56228802  0.56252688  0.06294552
   0.06263237  0.06259113  0.56311274
   0.56251836  0.06265722  0.56184725
   0.06271261  0.56223938  0.56247021
   0.56280371  0.56303786  0.56230438
   0.06242502  0.31157690  0.31228713
   0.56236442  0.31215142  0.31273843
   0.06168337  0.81285243  0.31275459
   0.56174893  0.81324256  0.31253670
   0.06228529  0.31210677  0.81245767
   0.56214534  0.31240442  0.81276404
   0.06264991  0.81234730  0.81225775
   0.56247793  0.81220914  0.81277807
   0.31274547  0.06267572  0.31240909
   0.81178073  0.06267025  0.31221204
   0.31255986  0.56309467  0.31240409
   0.81270029  0.56339707  0.31199195
   0.31246328  0.06232632  0.81244336
   0.81213361  0.06255636  0.81264804
   0.31252635  0.56207365  0.81181986
   0.81252478  0.56254930  0.81181014
   0.31274415  0.31180442  0.06193940
   0.81255810  0.31292160  0.06259476
   0.31235916  0.81268632  0.06349104
   0.81259134  0.81272382  0.06254462
   0.31224835  0.31275392  0.56268342
   0.81232753  0.31288738  0.56298324
   0.31310708  0.81226507  0.56232340
   0.81233146  0.81272358  0.56277449
Direct configuration=     3
   0.43834530  0.43705719  0.43798105
   0.93742277  0.43661962  0.43842199
   0.43839699  0.93822083  0.43841768
   0.93740411  0.93791699  0.43721461
   0.43671248  0.43831612  0.93820200
   0.93780428  0.43732524  0.93755480
   0.43777912  0.93741750  0.93800865
   0.93746162  0.93921416  0.93745409
   0.43733123  0.18686848  0.18682315
   0.93827581  0.18808925  0.18731645
   0.43772970  0.68773808  0.18723472
   0.93812539  0.68720124  0.18874136
   0.43659507  0.18724925  0.68699178
   0.93791757  0.18725018  0.68701453
   0.43842451  0.68751518  0.68817810
   0.93727757  0.68712020  0.68813494
   0.18813008  0.43749784  0.18726856
   0.68680670  0.43725476  0.18697999
   0.18813689  0.93712030  0.18817204
   0.68759192  0.93654154  0.18745469
   0.18809935  0.43704495  0.68798581
   0.68752629  0.43733903  0.68683275
   0.18790097  0.93865167  0.68763363
   0.68819264  0.93673810  0.68780624
   0.18721844  0.18716895  0.43698213
   0.68713482  0.18732635  0.43638579
   0.18692948  0.68726521  0.43713746
   0.68812580  0.68789587  0.43714766
   0.18762471  0.18741666  0.93848549
   0.68694364  0.18752136  0.93714584
   0.18762576  0.68785373  0.93751879
   0.68651614  0.68764329  0.93718200
   0.06256569  0.06170371  0.06126335
   0.56180997  0.06187163  0.06137534
   0.06270678  0.56219863  0.06331039
   0.56218214  0.56254044  0.06316760
   0.06269854  0.06263649  0.56341781
   0.56252829  0.06273587  0.56152242
   0.06281874  0.56210906  0.56245583
   0.56295573  0.56330630  0.56220657
   0.06238791  0.31111704  0.31218106
   0.56229646  0.31197740  0.31285670
   0.06127628  0.81302846  0.31288190
   0.56137442  0.81361287  0.31255529
   0.06217852  0.31191034  0.81243688
   0.56196782  0.31235719  0.81289550
   0.06272455  0.81227183  0.81213708
   0.56246686  0.81206452  0.81291697
   0.31286819  0.06276318  0.31236412
   0.81142227  0.06275524  0.31206768
   0.31259019  0.56339093  0.31235640
   0.81280014  0.56384356  0.31173890
   0.31244514  0.06223988  0.81241577
   0.81195081  0.06258499  0.81272152
   0.31253949  0.56186142  0.81148088
   0.81253676  0.56257352  0.81146648
   0.31286593  0.31145769  0.06166012
   0.81258696  0.31313166  0.06264173
   0.31228907  0.81277911  0.06398514
   0.81263748  0.81283499  0.06256667
   0.31212264  0.31288036  0.56277438
   0.81224117  0.31307979  0.56322396
   0.31340983  0.81214792  0.56223552
   0.81224805  0.81283486  0.56291126
Direct configuration=     4
   0.43862538  0.43691121  0.43814083
   0.93739691  0.43632758  0.43872673
   0.43869375  0.93846049  0.43872191
   0.93737106  0.93805683  0.43712096
   0.43645114  0.43858693  0.93843469
   0.93790504  0.43726808  0.93757256
   0.43787032  0.93738899  0.93817696
   0.93744843  0.93978156  0.93743765
   0.43727581  0.18665855  0.18659798
   0.93853270  0.18828336  0.18725430
   0.43780595  0.68781763  0.18714746
   0.93833314  0.68710306  0.18915198
   0.43629481  0.18716591  0.68682289
   0.93805503  0.18716721  0.68685379
   0.43873148  0.68751996  0.68840289
   0.93720433  0.68699439  0.68834461
   0.18834007  0.43749576  0.18719216
   0.68657672  0.43717377  0.18680845
   0.18834702  0.93699476  0.18839593
   0.68762133  0.93622371  0.18743890
   0.18829720  0.43689341  0.68814701
   0.68753377  0.43728584  0.68661186
   0.18803470  0.93903245  0.68767767
   0.68842134  0.93648574  0.68790792
   0.18712530  0.18705886  0.43681081
   0.68701433  0.18726949  0.43601665
   0.18673984  0.68718814  0.43701724
   0.68833306  0.68802883  0.43702991
   0.18766593  0.18738831  0.93881132
   0.68675888  0.18752894  0.93702881
   0.18766801  0.68797080  0.93752535
   0.68619048  0.68769010  0.93707690
   0.06258850  0.06143963  0.06085470
   0.56158221  0.06166268  0.06100261
   0.06277590  0.56209872  0.06357930
   0.56207637  0.56255416  0.06338896
   0.06276471  0.06268163  0.56372137
   0.56253911  0.06281458  0.56119944
   0.06292466  0.56197872  0.56244204
   0.56310799  0.56357419  0.56210874
   0.06235124  0.31065930  0.31207546
   0.56222827  0.31180366  0.31297386
   0.06087073  0.81320428  0.31300924
   0.56100117  0.81398198  0.31257422
   0.06207239  0.31171410  0.81241650
   0.56179001  0.31231064  0.81302632
   0.06279882  0.81219742  0.81201693
   0.56245574  0.81192084  0.81305573
   0.31299091  0.06285019  0.31231972
   0.81106521  0.06284007  0.31192289
   0.31262098  0.56368597  0.31230903
   0.81289964  0.56428754  0.31148702
   0.31242728  0.06215394  0.81238905
   0.81176844  0.06261415  0.81279438
   0.31255259  0.56165033  0.81114324
   0.81254824  0.56259720  0.81112437
   0.31298738  0.31111224  0.06138207
   0.81261559  0.31334089  0.06268821
   0.31221936  0.81287145  0.06447742
   0.81268419  0.81294530  0.06258839
   0.31199707  0.31300619  0.56286445
   0.81215465  0.31327069  0.56346365
   0.31371171  0.81203113  0.56214811
   0.81216567  0.81294553  0.56304747
Direct configuration=     5
   0.43890401  0.43676662  0.43830012
   0.93737094  0.43603677  0.43902929
   0.43898865  0.93869958  0.43902476
   0.93733707  0.93819748  0.43702853
   0.43619083  0.43885667  0.93866622
   0.93800525  0.43721183  0.93758990
   0.43795996  0.93735959  0.93834428
   0.93743487  0.94034562  0.93742022
   0.43722108  0.18644907  0.18637317
   0.93878813  0.18847549  0.18719129
   0.43788195  0.68789737  0.18706119
   0.93854036  0.68700608  0.18955985
   0.43599575  0.18708277  0.68665447
   0.93819106  0.18708446  0.68669393
   0.43903743  0.68752451  0.68862659
   0.93713184  0.68686924  0.68855262
   0.18855011  0.43749254  0.18711640
   0.68634766  0.43709340  0.18663843
   0.18855531  0.93687010  0.18861973
   0.68764973  0.93590731  0.18742252
   0.18849339  0.43674198  0.68830759
   0.68754014  0.43723303  0.68639222
   0.18816850  0.93941050  0.68772130
   0.68864820  0.93623477  0.68800927
   0.18703274  0.18694891  0.43664056
   0.68689487  0.18721348  0.43564953
   0.18655060  0.68711205  0.43689751
   0.68853921  0.68816267  0.43691188
   0.18770683  0.18735944  0.93913482
   0.68657464  0.18753690  0.93691264
   0.18771054  0.68808718  0.93753217
   0.68586682  0.68773610  0.93697257
   0.06261209  0.06117669  0.06044909
   0.56135638  0.06145417  0.06063169
   0.06284520  0.56199926  0.06384717
   0.56197076  0.56256808  0.06360937
   0.06283088  0.06272645  0.56402286
   0.56255113  0.06289341  0.56087895
   0.06303034  0.56184830  0.56242906
   0.56326054  0.56384135  0.56201086
   0.06231515  0.31020440  0.31197047
   0.56215976  0.31163028  0.31308956
   0.06046723  0.81337986  0.31313666
   0.56062951  0.81434960  0.31259356
   0.06196715  0.31151807  0.81239669
   0.56161181  0.31226498  0.81315632
   0.06287264  0.81212439  0.81189742
   0.56244456  0.81177840  0.81319431
   0.31311365  0.06293659  0.31227608
   0.81071008  0.06292470  0.31177750
   0.31265239  0.56397935  0.31226205
   0.81299865  0.56472821  0.31123664
   0.31240978  0.06206864  0.81236351
   0.81158658  0.06264403  0.81286644
   0.31256564  0.56144075  0.81080739
   0.81255905  0.56262018  0.81078433
   0.31310837  0.31076849  0.06110567
   0.81264392  0.31354908  0.06273406
   0.31215016  0.81296322  0.06496731
   0.81273164  0.81305447  0.06260969
   0.31187161  0.31313127  0.56295340
   0.81206791  0.31345958  0.56370196
   0.31401237  0.81191482  0.56206135
   0.81208460  0.81305545  0.56318299
Direct configuration=     6
   0.43918084  0.43662374  0.43845882
   0.93734486  0.43574735  0.43932925
   0.43928128  0.93893805  0.43932598
   0.93730191  0.93833917  0.43693763
   0.43593166  0.43912519  0.93889640
   0.93810484  0.43715669  0.93760673
   0.43804764  0.93732906  0.93851037
   0.93742083  0.94090538  0.93740157
   0.43716724  0.18624018  0.18614880
   0.93904170  0.18866517  0.18712719
   0.43795767  0.68797737  0.18697609
   0.93874700  0.68691060  0.18996436
   0.43569818  0.18699988  0.68648656
   0.93832530  0.18700198  0.68653518
   0.43934215  0.68752878  0.68884900
   0.93706027  0.68674492  0.68875861
   0.18876020  0.43748788  0.18704141
   0.68611974  0.43701379  0.18647029
   0.18876128  0.93674657  0.18884345
   0.68767684  0.93559272  0.18740544
   0.18868755  0.43659069  0.68846737
   0.68754517  0.43718071  0.68617415
   0.18830245  0.93978519  0.68776444
   0.68887277  0.93598549  0.68811022
   0.18694088  0.18683915  0.43647163
   0.68677663  0.18715851  0.43528487
   0.18636183  0.68703716  0.43677842
   0.68874400  0.68829758  0.43679353
   0.18774731  0.18732994  0.93945538
   0.68639103  0.18754535  0.93679753
   0.18775342  0.68820278  0.93753933
   0.68554568  0.68778109  0.93686917
   0.06263667  0.06091507  0.06004725
   0.56113283  0.06124615  0.06026297
   0.06291476  0.56190033  0.06411371
   0.56186534  0.56258229  0.06382857
   0.06289704  0.06277088  0.56432174
   0.56256466  0.06297241  0.56056161
   0.06313574  0.56171773  0.56241708
   0.56341349  0.56410758  0.56191291
   0.06227979  0.30975292  0.31186622
   0.56209083  0.31145734  0.31320346
   0.06006625  0.81355520  0.31326421
   0.56025976  0.81471542  0.31261341
   0.06186299  0.31132228  0.81237757
   0.56143309  0.31222040  0.81328528
   0.06294593  0.81205303  0.81177867
   0.56243330  0.81163748  0.81333271
   0.31323648  0.06302229  0.31223336
   0.81035731  0.06300907  0.31163132
   0.31268456  0.56427066  0.31221555
   0.81309704  0.56516482  0.31098803
   0.31239274  0.06198412  0.81233942
   0.81140531  0.06267482  0.81293749
   0.31257866  0.56123300  0.81047373
   0.81256903  0.56264226  0.81044692
   0.31322883  0.31042679  0.06083119
   0.81267191  0.31375598  0.06277913
   0.31208157  0.81305428  0.06545429
   0.81278003  0.81316232  0.06263047
   0.31174630  0.31325544  0.56304096
   0.81198094  0.31364598  0.56393859
   0.31431151  0.81179909  0.56197536
   0.81200516  0.81316444  0.56331768
Direct configuration=     7
   0.43945560  0.43648286  0.43861689
   0.93731867  0.43545948  0.43962621
   0.43957125  0.93917583  0.43962533
   0.93726528  0.93848214  0.43684851
   0.43567378  0.43939235  0.93912506
   0.93820372  0.43710285  0.93762296
   0.43813299  0.93729716  0.93867500
   0.93740615  0.94145974  0.93738142
   0.43711444  0.18603191  0.18592492
   0.93929312  0.18885200  0.18706177
   0.43803311  0.68805776  0.18689237
   0.93895309  0.68681688  0.19036490
   0.43540228  0.18691728  0.68631921
   0.93845740  0.18691986  0.68637772
   0.43964548  0.68753273  0.68906998
   0.93698980  0.68662157  0.68896218
   0.18897037  0.43748153  0.18696734
   0.68589314  0.43693510  0.18630436
   0.18896456  0.93662435  0.18906719
   0.68770243  0.93528027  0.18738753
   0.18887928  0.43643956  0.68862623
   0.68754853  0.43712901  0.68595793
   0.18843663  0.94015595  0.68780705
   0.68909473  0.93573813  0.68821076
   0.18684985  0.18672962  0.43630424
   0.68665978  0.18710478  0.43492308
   0.18617362  0.68696371  0.43666006
   0.68894718  0.68843379  0.43667481
   0.18778730  0.18729966  0.93977253
   0.68620813  0.18755441  0.93668364
   0.18779676  0.68831751  0.93754688
   0.68522744  0.68782492  0.93676683
   0.06266243  0.06065497  0.05964988
   0.56091195  0.06103868  0.05989685
   0.06298462  0.56180201  0.06437871
   0.56176007  0.56259684  0.06404635
   0.06296323  0.06281484  0.56461756
   0.56258000  0.06305172  0.56024793
   0.06324084  0.56158696  0.56240629
   0.56356696  0.56437279  0.56181487
   0.06224528  0.30930554  0.31176284
   0.56202138  0.31128490  0.31331519
   0.05966822  0.81373037  0.31339196
   0.55989227  0.81507912  0.31263386
   0.06176009  0.31112677  0.81235926
   0.56125374  0.31217712  0.81341305
   0.06301862  0.81198362  0.81166080
   0.56242194  0.81149841  0.81347092
   0.31335944  0.06310719  0.31219171
   0.81000725  0.06309314  0.31148410
   0.31271763  0.56455953  0.31216962
   0.81319470  0.56559659  0.31074150
   0.31237625  0.06190052  0.81231707
   0.81122472  0.06270671  0.81300734
   0.31259165  0.56102732  0.81014259
   0.81257800  0.56266330  0.81011251
   0.31334872  0.31008749  0.06055894
   0.81269947  0.31396136  0.06282328
   0.31201368  0.81314456  0.06593771
   0.81282958  0.81326862  0.06265064
   0.31162115  0.31337854  0.56312686
   0.81189366  0.31382944  0.56417328
   0.31460895  0.81168398  0.56189026
   0.81192764  0.81327233  0.56345135
Direct configuration=     8
   0.43972813  0.43634420  0.43877439
   0.93729234  0.43517336  0.43991977
   0.43985815  0.93941296  0.43992252
   0.93722692  0.93862667  0.43676148
   0.43541723  0.43965806  0.93935213
   0.93830184  0.43705050  0.93763849
   0.43821561  0.93726362  0.93883794
   0.93739064  0.94200769  0.93735948
   0.43706284  0.18582423  0.18570145
   0.93954212  0.18903562  0.18699477
   0.43810823  0.68813860  0.18681026
   0.93915861  0.68672516  0.19076088
   0.43510820  0.18683500  0.68615241
   0.93858704  0.18683815  0.68622171
   0.43994724  0.68753629  0.68928942
   0.93692059  0.68649932  0.68916302
   0.18918066  0.43747321  0.18689430
   0.68566790  0.43685743  0.18614088
   0.18916481  0.93650363  0.18929107
   0.68772628  0.93497002  0.18736867
   0.18906827  0.43628853  0.68878414
   0.68754995  0.43707802  0.68574388
   0.18857112  0.94052225  0.68784905
   0.68931378  0.93549290  0.68831086
   0.18675977  0.18662031  0.43613863
   0.68654448  0.18705246  0.43456450
   0.18598600  0.68689192  0.43654254
   0.68914858  0.68857156  0.43655562
   0.18782670  0.18726848  0.94008590
   0.68602601  0.18756415  0.93657114
   0.18784060  0.68843129  0.93755492
   0.68491246  0.68786740  0.93666567
   0.06268960  0.06039663  0.05925771
   0.56069414  0.06083181  0.05953370
   0.06305488  0.56170432  0.06464203
   0.56165495  0.56261179  0.06426253
   0.06302950  0.06285828  0.56490997
   0.56259747  0.06313148  0.55993838
   0.06334561  0.56145593  0.56239688
   0.56372114  0.56463692  0.56171666
   0.06221174  0.30886299  0.31166038
   0.56195131  0.31111304  0.31342442
   0.05927356  0.81390543  0.31352001
   0.55952747  0.81544028  0.31265500
   0.06165858  0.31093156  0.81234190
   0.56107359  0.31213535  0.81353947
   0.06309065  0.81191648  0.81154393
   0.56241045  0.81136146  0.81360894
   0.31348258  0.06319122  0.31215127
   0.80966023  0.06317689  0.31133560
   0.31275175  0.56484576  0.31212429
   0.81329150  0.56602276  0.31049738
   0.31236039  0.06181793  0.81229674
   0.81104488  0.06273989  0.81307584
   0.31260461  0.56082398  0.80981435
   0.81258577  0.56268311  0.80978144
   0.31346802  0.30975091  0.06028921
   0.81272655  0.31416501  0.06286639
   0.31194651  0.81323401  0.06641690
   0.81288045  0.81337321  0.06267008
   0.31149617  0.31350041  0.56321086
   0.81180599  0.31400964  0.56440584
   0.31490449  0.81156957  0.56180614
   0.81185236  0.81337897  0.56358391
Direct configuration=     9
   0.43999823  0.43620799  0.43893136
   0.93726589  0.43488920  0.44020950
   0.44014151  0.93964933  0.44021723
   0.93718658  0.93877301  0.43667676
   0.43516211  0.43992220  0.93957749
   0.93839913  0.43699981  0.93765323
   0.43829518  0.93722818  0.93899898
   0.93737414  0.94254854  0.93733546
   0.43701257  0.18561712  0.18547838
   0.93978846  0.18921570  0.18692591
   0.43818300  0.68822001  0.18672995
   0.93936356  0.68663568  0.19115164
   0.43481608  0.18675300  0.68598614
   0.93871393  0.18675689  0.68606728
   0.44024728  0.68753940  0.68950719
   0.93685278  0.68637824  0.68936084
   0.18939117  0.43746265  0.18682236
   0.68544413  0.43678087  0.18598006
   0.18936173  0.93638452  0.18951524
   0.68774816  0.93466221  0.18734873
   0.18925424  0.43613748  0.68894104
   0.68754916  0.43702784  0.68553221
   0.18870604  0.94088354  0.68789041
   0.68952960  0.93524998  0.68841058
   0.18667075  0.18651123  0.43597498
   0.68643083  0.18700170  0.43420953
   0.18579895  0.68682199  0.43642587
   0.68934807  0.68871123  0.43643585
   0.18786541  0.18723624  0.94039501
   0.68584469  0.18757468  0.93646016
   0.18788502  0.68854404  0.93756350
   0.68460105  0.68790833  0.93656582
   0.06271845  0.06014035  0.05887148
   0.56047981  0.06062565  0.05917399
   0.06312563  0.56160729  0.06490357
   0.56154990  0.56262722  0.06447701
   0.06309589  0.06290118  0.56519863
   0.56261736  0.06321181  0.55963342
   0.06345005  0.56132453  0.56238901
   0.56387625  0.56489997  0.56161817
   0.06217924  0.30842598  0.31155888
   0.56188051  0.31094179  0.31353088
   0.05888271  0.81408039  0.31364844
   0.55916574  0.81579857  0.31267695
   0.06155860  0.31073661  0.81232563
   0.56089245  0.31209526  0.81366440
   0.06316194  0.81185188  0.81142808
   0.56239877  0.81122689  0.81374677
   0.31360598  0.06327426  0.31211221
   0.80931657  0.06326029  0.31118555
   0.31278706  0.56512917  0.31207962
   0.81338726  0.56644251  0.31025604
   0.31234526  0.06173642  0.81227870
   0.81086584  0.06277457  0.81314284
   0.31261757  0.56062320  0.80948925
   0.81259218  0.56270152  0.80945414
   0.31358673  0.30941742  0.06002232
   0.81275308  0.31436676  0.06290834
   0.31188008  0.81332259  0.06689121
   0.81293284  0.81347593  0.06268872
   0.31137131  0.31362097  0.56329267
   0.81171787  0.31418622  0.56463609
   0.31519806  0.81145584  0.56172309
   0.81177959  0.81348419  0.56371523
Direct configuration=    10
   0.44026581  0.43607436  0.43908783
   0.93723924  0.43460718  0.44049504
   0.44042091  0.93988482  0.44050918
   0.93714395  0.93892149  0.43659459
   0.43490856  0.44018460  0.93980098
   0.93849559  0.43695097  0.93766713
   0.43837134  0.93719058  0.93915796
   0.93735649  0.94308171  0.93730912
   0.43696381  0.18541052  0.18525561
   0.94003189  0.18939190  0.18685490
   0.43825741  0.68830209  0.18665165
   0.93956795  0.68654867  0.19153653
   0.43452600  0.18667126  0.68582036
   0.93883786  0.18667609  0.68591450
   0.44054549  0.68754200  0.68972313
   0.93678650  0.68625839  0.68955542
   0.18960210  0.43744959  0.18675155
   0.68522183  0.43670548  0.18582210
   0.18955500  0.93626712  0.18973992
   0.68776786  0.93435705  0.18732760
   0.18943695  0.43598628  0.68909697
   0.68754588  0.43697849  0.68532305
   0.18884154  0.94123924  0.68793113
   0.68974195  0.93500950  0.68850998
   0.18658282  0.18640229  0.43581338
   0.68631892  0.18695260  0.43385854
   0.18561238  0.68675408  0.43631006
   0.68954559  0.68885312  0.43631532
   0.18790335  0.18720280  0.94069941
   0.68566413  0.18758612  0.93635077
   0.18793010  0.68865570  0.93757270
   0.68429353  0.68794758  0.93646737
   0.06274922  0.05988635  0.05849189
   0.56026932  0.06042023  0.05881813
   0.06319697  0.56151089  0.06516329
   0.56144485  0.56264323  0.06468971
   0.06316244  0.06294347  0.56548316
   0.56263999  0.06329295  0.55933352
   0.06355415  0.56119266  0.56238287
   0.56403249  0.56516191  0.56151927
   0.06214784  0.30799520  0.31145840
   0.56180881  0.31077110  0.31363429
   0.05849615  0.81425526  0.31377735
   0.55880727  0.81615380  0.31269974
   0.06146022  0.31054180  0.81231054
   0.56071004  0.31205705  0.81378781
   0.06323245  0.81179010  0.81131333
   0.56238686  0.81109493  0.81388451
   0.31372972  0.06335625  0.31207466
   0.80897658  0.06334339  0.31103367
   0.31282371  0.56540952  0.31203563
   0.81348189  0.56685513  0.31001777
   0.31233095  0.06165606  0.81226322
   0.81068756  0.06281096  0.81320822
   0.31263057  0.56042527  0.80916764
   0.81259704  0.56271834  0.80913104
   0.31370491  0.30908742  0.05975858
   0.81277904  0.31456653  0.06294905
   0.31181441  0.81341029  0.06736007
   0.81298695  0.81357661  0.06270645
   0.31124652  0.31374012  0.56337209
   0.81162916  0.31435887  0.56486390
   0.31548956  0.81134275  0.56164118
   0.81170961  0.81358791  0.56384524
Direct configuration=    11
   0.44053071  0.43594351  0.43924387
   0.93721236  0.43432746  0.44077604
   0.44069581  0.94011930  0.44079803
   0.93709877  0.93907242  0.43651520
   0.43465669  0.44044514  0.94002242
   0.93859118  0.43690411  0.93768011
   0.43844377  0.93715051  0.93931477
   0.93733749  0.94360701  0.93728015
   0.43691664  0.18520434  0.18503303
   0.94027224  0.18956397  0.18678139
   0.43833147  0.68838496  0.18657552
   0.93977187  0.68646430  0.19191498
   0.43423804  0.18658974  0.68565505
   0.93895862  0.18659573  0.68576338
   0.44084172  0.68754404  0.68993707
   0.93672185  0.68613977  0.68974658
   0.18981365  0.43743376  0.18668192
   0.68500097  0.43663127  0.18566719
   0.18974437  0.93615153  0.18996531
   0.68778517  0.93405476  0.18730513
   0.18961615  0.43583477  0.68925193
   0.68753983  0.43693008  0.68511650
   0.18897770  0.94158878  0.68797117
   0.68995058  0.93477161  0.68860916
   0.18649604  0.18629339  0.43565394
   0.68620885  0.18690527  0.43351190
   0.18542622  0.68668836  0.43619508
   0.68974109  0.68899761  0.43619389
   0.18794051  0.18716795  0.94099863
   0.68548422  0.18759857  0.93624299
   0.18797593  0.68876625  0.93758263
   0.68399023  0.68798499  0.93637041
   0.06278217  0.05963475  0.05811957
   0.56006310  0.06021568  0.05846656
   0.06326901  0.56141509  0.06542114
   0.56133966  0.56265988  0.06490059
   0.06322927  0.06298517  0.56576322
   0.56266569  0.06337512  0.55903916
   0.06365796  0.56106016  0.56237862
   0.56419006  0.56542277  0.56141985
   0.06211768  0.30757114  0.31135902
   0.56173607  0.31060088  0.31373443
   0.05811427  0.81443014  0.31390689
   0.55845226  0.81650580  0.31272339
   0.06136349  0.31034699  0.81229674
   0.56052610  0.31202089  0.81390963
   0.06330216  0.81173138  0.81119969
   0.56237473  0.81096570  0.81402230
   0.31385390  0.06343718  0.31203877
   0.80864063  0.06342619  0.31087969
   0.31286189  0.56568659  0.31199233
   0.81357521  0.56726002  0.30978282
   0.31231755  0.06157692  0.81225056
   0.81050993  0.06284926  0.81327187
   0.31264369  0.56023047  0.80884980
   0.81260018  0.56273341  0.80881253
   0.31382258  0.30876124  0.05949830
   0.81280438  0.31476434  0.06298843
   0.31174956  0.81349704  0.06782320
   0.81304299  0.81367511  0.06272319
   0.31112170  0.31385786  0.56344892
   0.81153975  0.31452726  0.56508911
   0.31577896  0.81123027  0.56156043
   0.81164266  0.81369005  0.56397388
Direct configuration=    12
   0.44079277  0.43581559  0.43939956
   0.93718529  0.43405006  0.44105222
   0.44096574  0.94035260  0.44108342
   0.93705071  0.93922622  0.43643875
   0.43440661  0.44070368  0.94024164
   0.93868591  0.43685936  0.93769210
   0.43851216  0.93710766  0.93946931
   0.93731693  0.94412447  0.93724825
   0.43687119  0.18499849  0.18481050
   0.94050928  0.18973158  0.18670501
   0.43840521  0.68846876  0.18650173
   0.93997543  0.68638284  0.19228651
   0.43395231  0.18650843  0.68549016
   0.93907605  0.18651576  0.68561395
   0.44113593  0.68754544  0.69014885
   0.93665893  0.68602242  0.68993412
   0.19002606  0.43741488  0.18661354
   0.68478158  0.43655826  0.18551545
   0.18992960  0.93603779  0.19019166
   0.68779992  0.93375551  0.18728119
   0.18979165  0.43568271  0.68940600
   0.68753071  0.43688269  0.68491261
   0.18911469  0.94193167  0.68801053
   0.69015523  0.93453647  0.68870826
   0.18641040  0.18618436  0.43549665
   0.68610071  0.18685977  0.43316995
   0.18524031  0.68662491  0.43608089
   0.68993451  0.68914505  0.43607135
   0.18797687  0.18713146  0.94129229
   0.68530485  0.18761215  0.93613686
   0.18802261  0.68887565  0.93759337
   0.68369145  0.68802042  0.93627499
   0.06281754  0.05938562  0.05775500
   0.55986162  0.06001218  0.05811965
   0.06334190  0.56131983  0.06567714
   0.56123422  0.56267727  0.06510961
   0.06329652  0.06302625  0.56603848
   0.56269485  0.06345861  0.55875077
   0.06376156  0.56092682  0.56237643
   0.56434920  0.56568259  0.56131972
   0.06208887  0.30715410  0.31126074
   0.56166206  0.31043107  0.31383110
   0.05773740  0.81460511  0.31403713
   0.55810074  0.81685457  0.31274795
   0.06126845  0.31015204  0.81228435
   0.56034028  0.31198694  0.81402984
   0.06337106  0.81167594  0.81108716
   0.56236235  0.81083938  0.81416027
   0.31397867  0.06351700  0.31200466
   0.80830903  0.06350869  0.31072331
   0.31290178  0.56596020  0.31194968
   0.81366695  0.56765669  0.30955140
   0.31230512  0.06149905  0.81224100
   0.81033287  0.06288967  0.81333370
   0.31265695  0.56003902  0.80853598
   0.81260142  0.56274661  0.80849899
   0.31393973  0.30843913  0.05924177
   0.81282909  0.31496019  0.06302639
   0.31168554  0.81358282  0.06828061
   0.81310120  0.81377129  0.06273884
   0.31099668  0.31397417  0.56352300
   0.81144955  0.31469110  0.56531164
   0.31606621  0.81111838  0.56148085
   0.81157896  0.81379056  0.56410117
Direct configuration=    13
   0.44105188  0.43569075  0.43955500
   0.93715815  0.43377494  0.44132345
   0.44123025  0.94058459  0.44136508
   0.93699944  0.93938335  0.43636541
   0.43415838  0.44096008  0.94045851
   0.93877979  0.43681688  0.93770302
   0.43857620  0.93706174  0.93962154