Generated using dynaphopy

108 atoms

2 atom types


        0.0000000000         9.5700001716 xlo xhi
        0.0000000000         8.2878632280 ylo yhi
        0.0000000000        15.5670003891 zlo zhi
       -4.7850000858         0.0000000000         0.0000000000 xy xz yz

Masses

1        69.7230000000 
2        14.0067000000 

Atoms

1 1         1.5950000924         0.9208737104         0.0000000000
2 1         4.7850001496         0.9208737104         0.0000000000
3 1         7.9750002068         0.9208737104         0.0000000000
4 1         0.0000000638         3.6834947864         0.0000000000
5 1         3.1900001210         3.6834947864         0.0000000000
6 1         6.3800001782         3.6834947864         0.0000000000
7 1        -1.5949999648         6.4461158624         0.0000000000
8 1         1.5950000924         6.4461158624         0.0000000000
9 1         4.7850001496         6.4461158624         0.0000000000
10 1         1.5950000924         0.9208737104         5.1890001297
11 1         4.7850001496         0.9208737104         5.1890001297
12 1         7.9750002068         0.9208737104         5.1890001297
13 1         0.0000000638         3.6834947864         5.1890001297
14 1         3.1900001210         3.6834947864         5.1890001297
15 1         6.3800001782         3.6834947864         5.1890001297
16 1        -1.5949999648         6.4461158624         5.1890001297
17 1         1.5950000924         6.4461158624         5.1890001297
18 1         4.7850001496         6.4461158624         5.1890001297
19 1         1.5950000924         0.9208737104        10.3780002594
20 1         4.7850001496         0.9208737104        10.3780002594
21 1         7.9750002068         0.9208737104        10.3780002594
22 1         0.0000000638         3.6834947864        10.3780002594
23 1         3.1900001210         3.6834947864        10.3780002594
24 1         6.3800001782         3.6834947864        10.3780002594
25 1        -1.5949999648         6.4461158624        10.3780002594
26 1         1.5950000924         6.4461158624        10.3780002594
27 1         4.7850001496         6.4461158624        10.3780002594
28 1        -0.0000000160         1.8417472827         2.5945000649
29 1         3.1900000412         1.8417472827         2.5945000649
30 1         6.3800000984         1.8417472827         2.5945000649
31 1        -1.5950000446         4.6043683587         2.5945000649
32 1         1.5950000126         4.6043683587         2.5945000649
33 1         4.7850000698         4.6043683587         2.5945000649
34 1        -3.1900000732         7.3669894347         2.5945000649
35 1        -0.0000000160         7.3669894347         2.5945000649
36 1         3.1900000412         7.3669894347         2.5945000649
37 1        -0.0000000160         1.8417472827         7.7835001946
38 1         3.1900000412         1.8417472827         7.7835001946
39 1         6.3800000984         1.8417472827         7.7835001946
40 1        -1.5950000446         4.6043683587         7.7835001946
41 1         1.5950000126         4.6043683587         7.7835001946
42 1         4.7850000698         4.6043683587         7.7835001946
43 1        -3.1900000732         7.3669894347         7.7835001946
44 1        -0.0000000160         7.3669894347         7.7835001946
45 1         3.1900000412         7.3669894347         7.7835001946
46 1        -0.0000000160         1.8417472827        12.9725003242
47 1         3.1900000412         1.8417472827        12.9725003242
48 1         6.3800000984         1.8417472827        12.9725003242
49 1        -1.5950000446         4.6043683587        12.9725003242
50 1         1.5950000126         4.6043683587        12.9725003242
51 1         4.7850000698         4.6043683587        12.9725003242
52 1        -3.1900000732         7.3669894347        12.9725003242
53 1        -0.0000000160         7.3669894347        12.9725003242
54 1         3.1900000412         7.3669894347        12.9725003242
55 2         1.5950000924         0.9208737104         1.9458750486
56 2         4.7850001496         0.9208737104         1.9458750486
57 2         7.9750002068         0.9208737104         1.9458750486
58 2         0.0000000638         3.6834947864         1.9458750486
59 2         3.1900001210         3.6834947864         1.9458750486
60 2         6.3800001782         3.6834947864         1.9458750486
61 2        -1.5949999648         6.4461158624         1.9458750486
62 2         1.5950000924         6.4461158624         1.9458750486
63 2         4.7850001496         6.4461158624         1.9458750486
64 2         1.5950000924         0.9208737104         7.1348751783
65 2         4.7850001496         0.9208737104         7.1348751783
66 2         7.9750002068         0.9208737104         7.1348751783
67 2         0.0000000638         3.6834947864         7.1348751783
68 2         3.1900001210         3.6834947864         7.1348751783
69 2         6.3800001782         3.6834947864         7.1348751783
70 2        -1.5949999648         6.4461158624         7.1348751783
71 2         1.5950000924         6.4461158624         7.1348751783
72 2         4.7850001496         6.4461158624         7.1348751783
73 2         1.5950000924         0.9208737104        12.3238753080
74 2         4.7850001496         0.9208737104        12.3238753080
75 2         7.9750002068         0.9208737104        12.3238753080
76 2         0.0000000638         3.6834947864        12.3238753080
77 2         3.1900001210         3.6834947864        12.3238753080
78 2         6.3800001782         3.6834947864        12.3238753080
79 2        -1.5949999648         6.4461158624        12.3238753080
80 2         1.5950000924         6.4461158624        12.3238753080
81 2         4.7850001496         6.4461158624        12.3238753080
82 2        -0.0000000160         1.8417472827         4.5403751135
83 2         3.1900000412         1.8417472827         4.5403751135
84 2         6.3800000984         1.8417472827         4.5403751135
85 2        -1.5950000446         4.6043683587         4.5403751135
86 2         1.5950000126         4.6043683587         4.5403751135
87 2         4.7850000698         4.6043683587         4.5403751135
88 2        -3.1900000732         7.3669894347         4.5403751135
89 2        -0.0000000160         7.3669894347         4.5403751135
90 2         3.1900000412         7.3669894347         4.5403751135
91 2        -0.0000000160         1.8417472827         9.7293752432
92 2         3.1900000412         1.8417472827         9.7293752432
93 2         6.3800000984         1.8417472827         9.7293752432
94 2        -1.5950000446         4.6043683587         9.7293752432
95 2         1.5950000126         4.6043683587         9.7293752432
96 2         4.7850000698         4.6043683587         9.7293752432
97 2        -3.1900000732         7.3669894347         9.7293752432
98 2        -0.0000000160         7.3669894347         9.7293752432
99 2         3.1900000412         7.3669894347         9.7293752432
100 2        -0.0000000160         1.8417472827        14.9183753729
101 2         3.1900000412         1.8417472827        14.9183753729
102 2         6.3800000984         1.8417472827        14.9183753729
103 2        -1.5950000446         4.6043683587        14.9183753729
104 2         1.5950000126         4.6043683587        14.9183753729
105 2         4.7850000698         4.6043683587        14.9183753729
106 2        -3.1900000732         7.3669894347        14.9183753729
107 2        -0.0000000160         7.3669894347        14.9183753729
108 2         3.1900000412         7.3669894347        14.9183753729
