LAMMPS (11 Nov 2013)
WARNING: OMP_NUM_THREADS environment is not set. (../comm.cpp:100)
  using 1 OpenMP thread(s) per MPI task
# NaCl test problem for embedded atom method (EIM) potential

units		metal

boundary	p p p

box tilt large


atom_style      atomic

read_data       data.gan
  triclinic box = (0 0 0) to (9.57 8.28786 15.567) with tilt (-4.785 0 0)
  1 by 1 by 1 MPI processor grid
  108 atoms

pair_style      tersoff
pair_coeff      * * GaN.tersoff  Ga N

variable        t equal 2000

neighbor	0.3 bin

timestep        0.001

thermo_style    custom step etotal temp vol press
thermo          1000

velocity        all create $t 3627941 dist gaussian mom yes
velocity        all create 2000 3627941 dist gaussian mom yes
velocity          all scale $t
velocity          all scale 2000

fix             int all nvt temp $t $t 0.5  #between 0.2-2.0
fix             int all nvt temp 2000 $t 0.5  
fix             int all nvt temp 2000 2000 0.5  

run             10000
Memory usage per processor = 1.56623 Mbytes
Step TotEng Temp Volume Press 
       0   -461.30525         2000    1234.6943    14400.541 
    1000   -450.81683     1329.837    1234.6943     2452.045 
    2000   -434.74732    1963.1645    1234.6943    30467.567 
    3000   -427.27189    2170.7495    1234.6943    41558.233 
    4000   -435.47021     1721.662    1234.6943    28304.557 
    5000   -434.13606    1839.1505    1234.6943    22159.544 
    6000   -428.49992    2077.2721    1234.6943    35120.292 
    7000   -435.26768    1951.1346    1234.6943    22492.689 
    8000   -433.07582    1931.6571    1234.6943    36102.945 
    9000    -422.4141     2262.002    1234.6943    69587.379 
   10000   -431.44962    2115.8553    1234.6943    21111.891 
Loop time of 4.99223 on 1 procs (1 MPI x 1 OpenMP) for 10000 steps with 108 atoms

Pair  time (%) = 4.84373 (97.0254)
Neigh time (%) = 0.10759 (2.15516)
Comm  time (%) = 0.0182981 (0.366533)
Outpt time (%) = 0.000142097 (0.00284637)
Other time (%) = 0.0224681 (0.450061)

Nlocal:    108 ave 108 max 108 min
Histogram: 1 0 0 0 0 0 0 0 0 0
Nghost:    353 ave 353 max 353 min
Histogram: 1 0 0 0 0 0 0 0 0 0
Neighs:    0 ave 0 max 0 min
Histogram: 1 0 0 0 0 0 0 0 0 0
FullNghs:  1716 ave 1716 max 1716 min
Histogram: 1 0 0 0 0 0 0 0 0 0

Total # of neighbors = 1716
Ave neighs/atom = 15.8889
Neighbor list builds = 1000
Dangerous builds = 1000
dump            dynaphopy all custom 1 gan_${t}_vel.lammpstrj vx vy vz
dump            dynaphopy all custom 1 gan_2000_vel.lammpstrj vx vy vz
dump_modify     dynaphopy sort id

run             50000
Memory usage per processor = 1.72665 Mbytes
Step TotEng Temp Volume Press 
   10000   -431.44962    2115.8553    1234.6943    21111.891 
   11000   -435.75599    1863.8344    1234.6943    37244.074 
   12000   -429.50528    2228.0867    1234.6943    40796.398 
   13000   -434.72544    1813.9526    1234.6943     26950.51 
   14000   -435.36682    1834.8049    1234.6943    24885.963 
   15000   -430.84641    2101.4901    1234.6943    62263.742 
   16000   -433.38424    2105.4062    1234.6943    34164.214 
   17000   -439.80946    1746.0289    1234.6943    22381.763 
   18000   -432.00765    2112.9803    1234.6943     37976.49 
   19000    -430.7678    2108.3618    1234.6943    25088.621 
   20000   -437.62829    1690.1722    1234.6943    20295.178 
   21000   -431.88477    2178.6593    1234.6943    13021.978 
   22000   -432.36154    2035.5694    1234.6943    26095.057 
   23000   -436.52731    1873.3499    1234.6943    36169.243 
   24000   -433.92615    1905.5961    1234.6943    37844.639 
   25000   -430.16816    2115.6303    1234.6943    50601.199 
   26000   -436.71119     1963.069    1234.6943    54895.473 
   27000   -433.02155    1925.6784    1234.6943    54558.587 
   28000    -429.6066    2273.5039    1234.6943    22669.701 
   29000   -435.98314    2139.6157    1234.6943    16128.947 
   30000   -428.18875    2045.1935    1234.6943    61352.471 
   31000   -430.76836    2124.7648    1234.6943    45990.678 
   32000    -434.6573    1920.4088    1234.6943    27374.562 
   33000   -426.13457    2238.3991    1234.6943    54461.115 
   34000   -430.89902    2043.2103    1234.6943    40390.212 
   35000   -433.70158    1870.6629    1234.6943     31090.07 
   36000   -428.74618    2162.7468    1234.6943    29483.296 
   37000   -430.27057     2164.518    1234.6943    52073.165 
   38000   -433.86091    1984.1991    1234.6943    15942.694 
   39000   -428.79799     2074.795    1234.6943    22889.629 
   40000   -426.98911    2107.0135    1234.6943    49451.819 
   41000   -434.11893     1925.965    1234.6943    14575.304 
   42000    -431.1455      2073.71    1234.6943    29495.202 
   43000   -429.06606    2076.5843    1234.6943    56470.784 
   44000   -435.26774    1809.1764    1234.6943    19583.195 
   45000   -429.34707    2010.8281    1234.6943    27459.427 
   46000   -436.05632    1789.1002    1234.6943    40106.572 
   47000   -434.02866    2050.5843    1234.6943    9535.9824 
   48000   -430.17628    2228.7978    1234.6943     38393.36 
   49000   -438.27747    1827.6831    1234.6943    24054.287 
   50000     -433.946    1896.6182    1234.6943    37502.257 
   51000   -431.21251    2038.5059    1234.6943    36860.865 
   52000   -437.61169    1702.2971    1234.6943    24749.074 
   53000   -433.94503    1908.6372    1234.6943     26518.83 
   54000   -431.53181    2096.2715    1234.6943    22007.784 
   55000   -435.20747    1926.4077    1234.6943    56477.028 
   56000   -436.48191    1611.2032    1234.6943    17193.314 
   57000   -431.06068    2198.2179    1234.6943    45533.404 
   58000    -434.9283    1730.1782    1234.6943    38706.246 
   59000   -437.07986    1766.4199    1234.6943    28807.341 
   60000   -429.73461    2228.2316    1234.6943     40591.43 
Loop time of 29.0344 on 1 procs (1 MPI x 1 OpenMP) for 50000 steps with 108 atoms

Pair  time (%) = 24.5423 (84.5284)
Neigh time (%) = 0.536974 (1.84944)
Comm  time (%) = 0.0940127 (0.323798)
Outpt time (%) = 3.73478 (12.8633)
Other time (%) = 0.126319 (0.435067)

Nlocal:    108 ave 108 max 108 min
Histogram: 1 0 0 0 0 0 0 0 0 0
Nghost:    339 ave 339 max 339 min
Histogram: 1 0 0 0 0 0 0 0 0 0
Neighs:    0 ave 0 max 0 min
Histogram: 1 0 0 0 0 0 0 0 0 0
FullNghs:  1678 ave 1678 max 1678 min
Histogram: 1 0 0 0 0 0 0 0 0 0

Total # of neighbors = 1678
Ave neighs/atom = 15.537
Neighbor list builds = 5000
Dangerous builds = 5000
